% Model:              cluster_pvk_2_TM_desp_0_sim_SOLVED.mph
% Version:            COMSOL 6.2.0.658
% Date:               Dec 11 2025, 20:52
% Table:              Accumulated Probe Table 13 - 
% h_fib (nm)             lda0 (nm)                lambda0 (nm)             Reflection port 1 (1), Global Variable Probe 1 Transmittance port 2 (1), Global Variable Probe 2 Absorptance total (1), Global Variable Probe 3
1.06800E3                5.10750E2                5.10750E2                9.43433E-1                                     3.43205E-7                                        5.65664E-2
1.06800E3                5.11000E2                5.11000E2                9.43118E-1                                     1.44408E-7                                        5.68821E-2
1.06800E3                5.11250E2                5.11250E2                9.43027E-1                                     5.46974E-8                                        5.69726E-2
1.06800E3                5.11500E2                5.11500E2                9.43118E-1                                     5.65591E-8                                        5.68819E-2
1.06800E3                5.11750E2                5.11750E2                9.43352E-1                                     1.32643E-7                                        5.66476E-2
1.06800E3                5.12000E2                5.12000E2                9.43702E-1                                     2.67006E-7                                        5.62978E-2
1.06800E3                5.12250E2                5.12250E2                9.44152E-1                                     4.46850E-7                                        5.58476E-2
1.06800E3                5.12500E2                5.12500E2                9.44705E-1                                     6.65625E-7                                        5.52947E-2
1.06800E3                5.12750E2                5.12750E2                9.45387E-1                                     9.09598E-7                                        5.46118E-2
1.06800E3                5.13000E2                5.13000E2                9.46266E-1                                     1.16097E-6                                        5.37324E-2
1.06800E3                5.13250E2                5.13250E2                9.47469E-1                                     1.39353E-6                                        5.25301E-2
1.06800E3                5.13500E2                5.13500E2                9.49194E-1                                     1.56915E-6                                        5.08040E-2
1.06800E3                5.13750E2                5.13750E2                9.51687E-1                                     1.64192E-6                                        4.83115E-2
1.06800E3                5.14000E2                5.14000E2                9.55075E-1                                     1.58517E-6                                        4.49237E-2
1.06800E3                5.14250E2                5.14250E2                9.59041E-1                                     1.44691E-6                                        4.09580E-2
1.06800E3                5.14500E2                5.14500E2                9.62764E-1                                     1.36244E-6                                        3.72350E-2
1.06800E3                5.14750E2                5.14750E2                9.65457E-1                                     1.47622E-6                                        3.45412E-2
1.06800E3                5.15000E2                5.15000E2                9.66944E-1                                     1.83995E-6                                        3.30543E-2
1.06800E3                5.15250E2                5.15250E2                9.67535E-1                                     2.42049E-6                                        3.24627E-2
1.06800E3                5.15500E2                5.15500E2                9.67631E-1                                     3.13667E-6                                        3.23654E-2
1.06800E3                5.15750E2                5.15750E2                9.67514E-1                                     3.92584E-6                                        3.24824E-2
1.06800E3                5.16000E2                5.16000E2                9.67329E-1                                     4.74600E-6                                        3.26660E-2
1.06800E3                5.16250E2                5.16250E2                9.67143E-1                                     5.54588E-6                                        3.28517E-2
1.06800E3                5.16500E2                5.16500E2                9.66971E-1                                     6.26861E-6                                        3.30227E-2
1.06800E3                5.16750E2                5.16750E2                9.66803E-1                                     6.85149E-6                                        3.31898E-2
1.06800E3                5.17000E2                5.17000E2                9.66613E-1                                     7.17755E-6                                        3.33799E-2
1.06800E3                5.17250E2                5.17250E2                9.66337E-1                                     7.13058E-6                                        3.36563E-2
1.06800E3                5.17500E2                5.17500E2                9.65867E-1                                     6.87913E-6                                        3.41261E-2
1.06800E3                5.17750E2                5.17750E2                9.65083E-1                                     6.54090E-6                                        3.49102E-2
1.06800E3                5.18000E2                5.18000E2                9.63847E-1                                     6.31766E-6                                        3.61469E-2
1.06800E3                5.18250E2                5.18250E2                9.62036E-1                                     6.50431E-6                                        3.79577E-2
1.06800E3                5.18500E2                5.18500E2                9.59651E-1                                     7.47629E-6                                        4.03414E-2
1.06800E3                5.18750E2                5.18750E2                9.57037E-1                                     9.58972E-6                                        4.29535E-2
1.06800E3                5.19000E2                5.19000E2                9.55343E-1                                     1.27484E-5                                        4.46445E-2
1.06800E3                5.19250E2                5.19250E2                9.56233E-1                                     1.59340E-5                                        4.37510E-2
1.06800E3                5.19500E2                5.19500E2                9.60350E-1                                     1.76032E-5                                        3.96323E-2
1.06800E3                5.19750E2                5.19750E2                9.66193E-1                                     1.72389E-5                                        3.37898E-2
1.06800E3                5.20000E2                5.20000E2                9.71703E-1                                     1.57030E-5                                        2.82815E-2
1.06800E3                5.20250E2                5.20250E2                9.75871E-1                                     1.40594E-5                                        2.41152E-2
1.06800E3                5.20500E2                5.20500E2                9.78614E-1                                     1.29579E-5                                        2.13735E-2
1.06800E3                5.20750E2                5.20750E2                9.80131E-1                                     1.27511E-5                                        1.98565E-2
1.06800E3                5.21000E2                5.21000E2                9.80600E-1                                     1.36610E-5                                        1.93860E-2
1.06800E3                5.21250E2                5.21250E2                9.80303E-1                                     1.54730E-5                                        1.96811E-2
1.06800E3                5.21500E2                5.21500E2                9.79595E-1                                     1.72237E-5                                        2.03876E-2
1.06800E3                5.21750E2                5.21750E2                9.78016E-1                                     1.92236E-5                                        2.19647E-2
1.06800E3                5.22000E2                5.22000E2                9.74954E-1                                     2.24504E-5                                        2.50233E-2
1.06800E3                5.22250E2                5.22250E2                9.70069E-1                                     2.83153E-5                                        2.99029E-2
1.06800E3                5.22500E2                5.22500E2                9.62714E-1                                     3.80094E-5                                        3.72477E-2
1.06800E3                5.22750E2                5.22750E2                9.58074E-1                                     3.70901E-5                                        4.18885E-2
1.06800E3                5.23000E2                5.23000E2                9.62050E-1                                     1.99051E-5                                        3.79303E-2
1.06800E3                5.23250E2                5.23250E2                9.64149E-1                                     1.05673E-5                                        3.58408E-2
1.06800E3                5.23500E2                5.23500E2                9.58337E-1                                     1.59795E-5                                        4.16466E-2
1.06800E3                5.23750E2                5.23750E2                9.44153E-1                                     3.54006E-5                                        5.58120E-2
1.06800E3                5.24000E2                5.24000E2                9.22171E-1                                     7.04689E-5                                        7.77589E-2
1.06800E3                5.24250E2                5.24250E2                9.02036E-1                                     1.11465E-4                                        9.78522E-2
1.06800E3                5.24500E2                5.24500E2                9.04040E-1                                     1.24198E-4                                        9.58355E-2
1.06800E3                5.24750E2                5.24750E2                9.25461E-1                                     9.82267E-5                                        7.44408E-2
1.06800E3                5.25000E2                5.25000E2                9.44926E-1                                     8.23865E-5                                        5.49921E-2
1.06800E3                5.25250E2                5.25250E2                9.65059E-1                                     7.98570E-5                                        3.48612E-2
1.06800E3                5.25500E2                5.25500E2                9.77507E-1                                     5.81827E-5                                        2.24353E-2
1.06800E3                5.25750E2                5.25750E2                9.84278E-1                                     4.22376E-5                                        1.56802E-2
1.06800E3                5.26000E2                5.26000E2                9.88095E-1                                     3.15614E-5                                        1.18735E-2
1.06800E3                5.26250E2                5.26250E2                9.90053E-1                                     2.42587E-5                                        9.92303E-3
1.06800E3                5.26500E2                5.26500E2                9.90606E-1                                     1.91716E-5                                        9.37527E-3
1.06800E3                5.26750E2                5.26750E2                9.89867E-1                                     1.56119E-5                                        1.01173E-2
1.06800E3                5.27000E2                5.27000E2                9.87719E-1                                     1.32245E-5                                        1.22673E-2
1.06800E3                5.27250E2                5.27250E2                9.83785E-1                                     1.18299E-5                                        1.62036E-2
1.06800E3                5.27500E2                5.27500E2                9.77364E-1                                     1.14271E-5                                        2.26244E-2
1.06800E3                5.27750E2                5.27750E2                9.67322E-1                                     1.22351E-5                                        3.26657E-2
1.06800E3                5.28000E2                5.28000E2                9.52020E-1                                     1.48002E-5                                        4.79649E-2
1.06800E3                5.28250E2                5.28250E2                9.29795E-1                                     2.01238E-5                                        7.01845E-2
1.06800E3                5.28500E2                5.28500E2                9.01387E-1                                     2.94386E-5                                        9.85833E-2
1.06800E3                5.28750E2                5.28750E2                8.75515E-1                                     4.25389E-5                                        1.24442E-1
1.06800E3                5.29000E2                5.29000E2                8.68786E-1                                     5.55024E-5                                        1.31158E-1
1.06800E3                5.29250E2                5.29250E2                8.86042E-1                                     6.44486E-5                                        1.13893E-1
1.06800E3                5.29500E2                5.29500E2                9.10665E-1                                     7.27700E-5                                        8.92620E-2
1.06800E3                5.29750E2                5.29750E2                9.23814E-1                                     5.77347E-5                                        7.61278E-2
1.06800E3                5.30000E2                5.30000E2                9.51926E-1                                     3.18469E-5                                        4.80423E-2
1.06900E3                5.00000E2                5.00000E2                9.29643E-1                                     4.82108E-7                                        7.03564E-2
1.06900E3                5.00250E2                5.00250E2                9.28108E-1                                     3.74162E-7                                        7.18914E-2
1.06900E3                5.00500E2                5.00500E2                9.27057E-1                                     2.86401E-7                                        7.29423E-2
1.06900E3                5.00750E2                5.00750E2                9.26504E-1                                     2.17687E-7                                        7.34962E-2
1.06900E3                5.01000E2                5.01000E2                9.26472E-1                                     1.67571E-7                                        7.35283E-2
1.06900E3                5.01250E2                5.01250E2                9.27047E-1                                     1.36305E-7                                        7.29533E-2
1.06900E3                5.01500E2                5.01500E2                9.28220E-1                                     1.28509E-7                                        7.17801E-2
1.06900E3                5.01750E2                5.01750E2                9.30008E-1                                     1.52804E-7                                        6.99918E-2
1.06900E3                5.02000E2                5.02000E2                9.32413E-1                                     2.26677E-7                                        6.75867E-2
1.06900E3                5.02250E2                5.02250E2                9.35400E-1                                     3.80648E-7                                        6.45996E-2
1.06900E3                5.02500E2                5.02500E2                9.38869E-1                                     6.61376E-7                                        6.11302E-2
1.06900E3                5.02750E2                5.02750E2                9.42629E-1                                     1.12972E-6                                        5.73700E-2
1.06900E3                5.03000E2                5.03000E2                9.46301E-1                                     1.84903E-6                                        5.36975E-2
1.06900E3                5.03250E2                5.03250E2                9.49358E-1                                     2.86127E-6                                        5.06393E-2
1.06900E3                5.03500E2                5.03500E2                9.51230E-1                                     4.14803E-6                                        4.87654E-2
1.06900E3                5.03750E2                5.03750E2                9.51494E-1                                     5.60240E-6                                        4.84999E-2
1.06900E3                5.04000E2                5.04000E2                9.50091E-1                                     7.04271E-6                                        4.99018E-2
1.06900E3                5.04250E2                5.04250E2                9.47374E-1                                     8.26751E-6                                        5.26180E-2
1.06900E3                5.04500E2                5.04500E2                9.43934E-1                                     9.11410E-6                                        5.60566E-2
1.06900E3                5.04750E2                5.04750E2                9.40402E-1                                     9.55871E-6                                        5.95882E-2
1.06900E3                5.05000E2                5.05000E2                9.37209E-1                                     9.62779E-6                                        6.27811E-2
1.06900E3                5.05250E2                5.05250E2                9.34584E-1                                     9.38606E-6                                        6.54064E-2
1.06900E3                5.05500E2                5.05500E2                9.32603E-1                                     8.90864E-6                                        6.73882E-2
1.06900E3                5.05750E2                5.05750E2                9.31253E-1                                     8.26611E-6                                        6.87390E-2
1.06900E3                5.06000E2                5.06000E2                9.30482E-1                                     7.49089E-6                                        6.95100E-2
1.06900E3                5.06250E2                5.06250E2                9.30238E-1                                     6.66438E-6                                        6.97556E-2
1.06900E3                5.06500E2                5.06500E2                9.30463E-1                                     5.83878E-6                                        6.95311E-2
1.06900E3                5.06750E2                5.06750E2                9.31117E-1                                     5.05602E-6                                        6.88778E-2
1.06900E3                5.07000E2                5.07000E2                9.32175E-1                                     4.35606E-6                                        6.78208E-2
1.06900E3                5.07250E2                5.07250E2                9.33624E-1                                     3.77784E-6                                        6.63718E-2
1.06900E3                5.07500E2                5.07500E2                9.35467E-1                                     3.35588E-6                                        6.45299E-2
1.06900E3                5.07750E2                5.07750E2                9.37685E-1                                     3.12251E-6                                        6.23115E-2
1.06900E3                5.08000E2                5.08000E2                9.40211E-1                                     3.09171E-6                                        5.97859E-2
1.06900E3                5.08250E2                5.08250E2                9.42895E-1                                     3.23707E-6                                        5.71021E-2
1.06900E3                5.08500E2                5.08500E2                9.45461E-1                                     3.47698E-6                                        5.45354E-2
1.06900E3                5.08750E2                5.08750E2                9.47529E-1                                     3.67564E-6                                        5.24675E-2
1.06900E3                5.09000E2                5.09000E2                9.48736E-1                                     3.68807E-6                                        5.12604E-2
1.06900E3                5.09250E2                5.09250E2                9.48906E-1                                     3.43284E-6                                        5.10904E-2
1.06900E3                5.09500E2                5.09500E2                9.48238E-1                                     2.92378E-6                                        5.17591E-2
1.06900E3                5.09750E2                5.09750E2                9.47105E-1                                     2.27836E-6                                        5.28927E-2
1.06900E3                5.10000E2                5.10000E2                9.45875E-1                                     1.62679E-6                                        5.41231E-2
1.06900E3                5.10250E2                5.10250E2                9.44792E-1                                     1.06039E-6                                        5.52067E-2
1.06900E3                5.10500E2                5.10500E2                9.43968E-1                                     6.21901E-7                                        5.60317E-2
1.06900E3                5.10750E2                5.10750E2                9.43393E-1                                     3.10933E-7                                        5.66065E-2
1.06900E3                5.11000E2                5.11000E2                9.43075E-1                                     1.24107E-7                                        5.69249E-2
1.06900E3                5.11250E2                5.11250E2                9.42982E-1                                     4.83606E-8                                        5.70181E-2
1.06900E3                5.11500E2                5.11500E2                9.43070E-1                                     6.52310E-8                                        5.69301E-2
1.06900E3                5.11750E2                5.11750E2                9.43301E-1                                     1.56610E-7                                        5.66986E-2
1.06900E3                5.12000E2                5.12000E2                9.43648E-1                                     3.05890E-7                                        5.63515E-2
1.06900E3                5.12250E2                5.12250E2                9.44095E-1                                     5.00026E-7                                        5.59040E-2
1.06900E3                5.12500E2                5.12500E2                9.44646E-1                                     7.32441E-7                                        5.53533E-2
1.06900E3                5.12750E2                5.12750E2                9.45328E-1                                     9.87995E-7                                        5.46715E-2
1.06900E3                5.13000E2                5.13000E2                9.46207E-1                                     1.24758E-6                                        5.37916E-2
1.06900E3                5.13250E2                5.13250E2                9.47412E-1                                     1.48322E-6                                        5.25868E-2
1.06900E3                5.13500E2                5.13500E2                9.49143E-1                                     1.65473E-6                                        5.08558E-2
1.06900E3                5.13750E2                5.13750E2                9.51642E-1                                     1.71466E-6                                        4.83558E-2
1.06900E3                5.14000E2                5.14000E2                9.55041E-1                                     1.63611E-6                                        4.49572E-2
1.06900E3                5.14250E2                5.14250E2                9.59018E-1                                     1.47464E-6                                        4.09803E-2
1.06900E3                5.14500E2                5.14500E2                9.62751E-1                                     1.37449E-6                                        3.72472E-2
1.06900E3                5.14750E2                5.14750E2                9.65453E-1                                     1.48433E-6                                        3.45457E-2
1.06900E3                5.15000E2                5.15000E2                9.66944E-1                                     1.85196E-6                                        3.30546E-2
1.06900E3                5.15250E2                5.15250E2                9.67535E-1                                     2.43692E-6                                        3.24628E-2
1.06900E3                5.15500E2                5.15500E2                9.67626E-1                                     3.15357E-6                                        3.23710E-2
1.06900E3                5.15750E2                5.15750E2                9.67498E-1                                     3.93848E-6                                        3.24982E-2
1.06900E3                5.16000E2                5.16000E2                9.67300E-1                                     4.75082E-6                                        3.26955E-2
1.06900E3                5.16250E2                5.16250E2                9.67096E-1                                     5.54346E-6                                        3.28980E-2
1.06900E3                5.16500E2                5.16500E2                9.66905E-1                                     6.26622E-6                                        3.30889E-2
1.06900E3                5.16750E2                5.16750E2                9.66715E-1                                     6.86460E-6                                        3.32781E-2
1.06900E3                5.17000E2                5.17000E2                9.66504E-1                                     7.22659E-6                                        3.34885E-2
1.06900E3                5.17250E2                5.17250E2                9.66218E-1                                     7.22697E-6                                        3.37748E-2
1.06900E3                5.17500E2                5.17500E2                9.65751E-1                                     7.02950E-6                                        3.42418E-2
1.06900E3                5.17750E2                5.17750E2                9.64985E-1                                     6.74507E-6                                        3.50083E-2
1.06900E3                5.18000E2                5.18000E2                9.63779E-1                                     6.56929E-6                                        3.62144E-2
1.06900E3                5.18250E2                5.18250E2                9.62007E-1                                     6.78890E-6                                        3.79860E-2
1.06900E3                5.18500E2                5.18500E2                9.59662E-1                                     7.76328E-6                                        4.03298E-2
1.06900E3                5.18750E2                5.18750E2                9.57074E-1                                     9.82537E-6                                        4.29162E-2
1.06900E3                5.19000E2                5.19000E2                9.55377E-1                                     1.28539E-5                                        4.46099E-2
1.06900E3                5.19250E2                5.19250E2                9.56236E-1                                     1.58385E-5                                        4.37482E-2
1.06900E3                5.19500E2                5.19500E2                9.60325E-1                                     1.72943E-5                                        3.96576E-2
1.06900E3                5.19750E2                5.19750E2                9.66176E-1                                     1.67595E-5                                        3.38071E-2
1.06900E3                5.20000E2                5.20000E2                9.71727E-1                                     1.50993E-5                                        2.82576E-2
1.06900E3                5.20250E2                5.20250E2                9.75958E-1                                     1.33439E-5                                        2.40285E-2