% Model:              cluster_pvk_2_TE_desp_0_SOLVED.mph
% Version:            COMSOL 6.2.0.658
% Date:               Dec 7 2025, 14:36
% Table:              Accumulated Probe Table 13 - 
% h_fib (nm)             lda0 (nm)                lambda0 (nm)             Reflection port 1 (1), Global Variable Probe 1 Transmittance port 2 (1), Global Variable Probe 2 Absorptance total (1), Global Variable Probe 3
1.06800E3                5.10750E2                5.10750E2                9.97713E-1                                     3.32956E-7                                        2.28691E-3
1.06800E3                5.11000E2                5.11000E2                9.97762E-1                                     3.25920E-7                                        2.23734E-3
1.06800E3                5.11250E2                5.11250E2                9.97814E-1                                     3.17672E-7                                        2.18610E-3
1.06800E3                5.11500E2                5.11500E2                9.97867E-1                                     3.07747E-7                                        2.13284E-3
1.06800E3                5.11750E2                5.11750E2                9.97922E-1                                     2.95894E-7                                        2.07750E-3
1.06800E3                5.12000E2                5.12000E2                9.97979E-1                                     2.82242E-7                                        2.02023E-3
1.06800E3                5.12250E2                5.12250E2                9.98046E-1                                     2.66254E-7                                        1.95324E-3
1.06800E3                5.12500E2                5.12500E2                9.98128E-1                                     2.47803E-7                                        1.87171E-3
1.06800E3                5.12750E2                5.12750E2                9.98210E-1                                     2.29927E-7                                        1.78932E-3
1.06800E3                5.13000E2                5.13000E2                9.98293E-1                                     2.14157E-7                                        1.70689E-3
1.06800E3                5.13250E2                5.13250E2                9.98375E-1                                     2.01727E-7                                        1.62517E-3
1.06800E3                5.13500E2                5.13500E2                9.98455E-1                                     1.93163E-7                                        1.54487E-3
1.06800E3                5.13750E2                5.13750E2                9.98533E-1                                     1.87923E-7                                        1.46671E-3
1.06800E3                5.14000E2                5.14000E2                9.98604E-1                                     1.80123E-7                                        1.39569E-3
1.06800E3                5.14250E2                5.14250E2                9.98666E-1                                     1.73304E-7                                        1.33405E-3
1.06800E3                5.14500E2                5.14500E2                9.98717E-1                                     1.66022E-7                                        1.28251E-3
1.06800E3                5.14750E2                5.14750E2                9.98758E-1                                     1.57340E-7                                        1.24168E-3
1.06800E3                5.15000E2                5.15000E2                9.98788E-1                                     1.46868E-7                                        1.21196E-3
1.06800E3                5.15250E2                5.15250E2                9.98806E-1                                     1.34587E-7                                        1.19359E-3
1.06800E3                5.15500E2                5.15500E2                9.98795E-1                                     1.19097E-7                                        1.20451E-3
1.06800E3                5.15750E2                5.15750E2                9.98758E-1                                     1.01070E-7                                        1.24160E-3
1.06800E3                5.16000E2                5.16000E2                9.98702E-1                                     8.13875E-8                                        1.29836E-3
1.06800E3                5.16250E2                5.16250E2                9.98621E-1                                     6.03767E-8                                        1.37863E-3
1.06800E3                5.16500E2                5.16500E2                9.98510E-1                                     3.88520E-8                                        1.48984E-3
1.06800E3                5.16750E2                5.16750E2                9.98354E-1                                     1.85904E-8                                        1.64560E-3
1.06800E3                5.17000E2                5.17000E2                9.98124E-1                                     3.49608E-9                                        1.87645E-3
1.06800E3                5.17250E2                5.17250E2                9.97778E-1                                     2.93000E-9                                        2.22236E-3
1.06800E3                5.17500E2                5.17500E2                9.97311E-1                                     3.53087E-8                                        2.68852E-3
1.06800E3                5.17750E2                5.17750E2                9.96772E-1                                     1.30097E-7                                        3.22776E-3
1.06800E3                5.18000E2                5.18000E2                9.96404E-1                                     3.01995E-7                                        3.59608E-3
1.06800E3                5.18250E2                5.18250E2                9.96558E-1                                     4.82839E-7                                        3.44187E-3
1.06800E3                5.18500E2                5.18500E2                9.97143E-1                                     5.60047E-7                                        2.85627E-3
1.06800E3                5.18750E2                5.18750E2                9.97674E-1                                     5.09402E-7                                        2.32560E-3
1.06800E3                5.19000E2                5.19000E2                9.97923E-1                                     4.03499E-7                                        2.07620E-3
1.06800E3                5.19250E2                5.19250E2                9.97886E-1                                     2.79593E-7                                        2.11330E-3
1.06800E3                5.19500E2                5.19500E2                9.97657E-1                                     2.40879E-7                                        2.34295E-3
1.06800E3                5.19750E2                5.19750E2                9.97491E-1                                     4.62703E-7                                        2.50847E-3
1.06800E3                5.20000E2                5.20000E2                9.97449E-1                                     7.80917E-7                                        2.55028E-3
1.06800E3                5.20250E2                5.20250E2                9.97438E-1                                     9.16798E-7                                        2.56150E-3
1.06800E3                5.20500E2                5.20500E2                9.97270E-1                                     1.03155E-6                                        2.72852E-3
1.06800E3                5.20750E2                5.20750E2                9.96511E-1                                     1.36856E-6                                        3.48810E-3
1.06800E3                5.21000E2                5.21000E2                9.94393E-1                                     2.13244E-6                                        5.60441E-3
1.06800E3                5.21250E2                5.21250E2                9.88831E-1                                     3.76440E-6                                        1.11652E-2
1.06800E3                5.21500E2                5.21500E2                9.81975E-1                                     4.86285E-6                                        1.80199E-2
1.06800E3                5.21750E2                5.21750E2                9.90054E-1                                     1.88515E-6                                        9.94430E-3
1.06800E3                5.22000E2                5.22000E2                9.95717E-1                                     4.70872E-7                                        4.28267E-3
1.06800E3                5.22250E2                5.22250E2                9.97793E-1                                     1.05113E-7                                        2.20703E-3
1.06800E3                5.22500E2                5.22500E2                9.98673E-1                                     1.53114E-8                                        1.32711E-3
1.06800E3                5.22750E2                5.22750E2                9.99114E-1                                     4.75569E-9                                        8.85841E-4
1.06800E3                5.23000E2                5.23000E2                9.99366E-1                                     1.84815E-8                                        6.33848E-4
1.06800E3                5.23250E2                5.23250E2                9.99525E-1                                     3.95052E-8                                        4.75075E-4
1.06800E3                5.23500E2                5.23500E2                9.99626E-1                                     6.38966E-8                                        3.74152E-4
1.06800E3                5.23750E2                5.23750E2                9.99698E-1                                     8.78624E-8                                        3.02310E-4
1.06800E3                5.24000E2                5.24000E2                9.99752E-1                                     1.10554E-7                                        2.48344E-4
1.06800E3                5.24250E2                5.24250E2                9.99792E-1                                     1.34536E-7                                        2.07499E-4
1.06800E3                5.24500E2                5.24500E2                9.99823E-1                                     1.56916E-7                                        1.76914E-4
1.06800E3                5.24750E2                5.24750E2                9.99844E-1                                     1.74898E-7                                        1.55572E-4
1.06800E3                5.25000E2                5.25000E2                9.99856E-1                                     1.82362E-7                                        1.44283E-4
1.06800E3                5.25250E2                5.25250E2                9.99857E-1                                     1.77591E-7                                        1.43177E-4
1.06800E3                5.25500E2                5.25500E2                9.99849E-1                                     1.64076E-7                                        1.50892E-4
1.06800E3                5.25750E2                5.25750E2                9.99833E-1                                     1.50336E-7                                        1.67270E-4
1.06800E3                5.26000E2                5.26000E2                9.99809E-1                                     1.48476E-7                                        1.91227E-4
1.06800E3                5.26250E2                5.26250E2                9.99779E-1                                     1.73862E-7                                        2.20720E-4
1.06800E3                5.26500E2                5.26500E2                9.99746E-1                                     2.47184E-7                                        2.54123E-4
1.06800E3                5.26750E2                5.26750E2                9.99704E-1                                     4.00803E-7                                        2.95180E-4
1.06800E3                5.27000E2                5.27000E2                9.99649E-1                                     6.98415E-7                                        3.49931E-4
1.06800E3                5.27250E2                5.27250E2                9.99550E-1                                     1.29793E-6                                        4.49001E-4
1.06800E3                5.27500E2                5.27500E2                9.99287E-1                                     2.49986E-6                                        7.10131E-4
1.06800E3                5.27750E2                5.27750E2                9.99163E-1                                     3.09752E-6                                        8.33503E-4
1.06800E3                5.28000E2                5.28000E2                9.98393E-1                                     1.01611E-5                                        1.59690E-3
1.06800E3                5.28250E2                5.28250E2                9.90317E-1                                     7.72552E-5                                        9.60617E-3
1.06800E3                5.28500E2                5.28500E2                9.83459E-1                                     1.29007E-4                                        1.64121E-2
1.06800E3                5.28750E2                5.28750E2                9.96212E-1                                     1.04870E-5                                        3.77781E-3
1.06800E3                5.29000E2                5.29000E2                9.90151E-1                                     2.30195E-5                                        9.82632E-3
1.06800E3                5.29250E2                5.29250E2                9.99206E-1                                     8.41210E-6                                        7.85264E-4
1.06800E3                5.29500E2                5.29500E2                9.99679E-1                                     5.02824E-6                                        3.15975E-4
1.06800E3                5.29750E2                5.29750E2                9.99814E-1                                     3.63901E-6                                        1.82843E-4
1.06800E3                5.30000E2                5.30000E2                9.99869E-1                                     2.92430E-6                                        1.27977E-4
1.06900E3                5.00000E2                5.00000E2                9.92639E-1                                     4.07639E-6                                        7.35706E-3
1.06900E3                5.00250E2                5.00250E2                9.90879E-1                                     4.78850E-6                                        9.11658E-3
1.06900E3                5.00500E2                5.00500E2                9.88633E-1                                     5.61350E-6                                        1.13610E-2
1.06900E3                5.00750E2                5.00750E2                9.85958E-1                                     6.47841E-6                                        1.40357E-2
1.06900E3                5.01000E2                5.01000E2                9.83209E-1                                     7.19053E-6                                        1.67842E-2
1.06900E3                5.01250E2                5.01250E2                9.81272E-1                                     7.34573E-6                                        1.87204E-2
1.06900E3                5.01500E2                5.01500E2                9.80873E-1                                     6.79918E-6                                        1.91207E-2
1.06900E3                5.01750E2                5.01750E2                9.82063E-1                                     5.69015E-6                                        1.79315E-2
1.06900E3                5.02000E2                5.02000E2                9.84152E-1                                     4.38992E-6                                        1.58435E-2
1.06900E3                5.02250E2                5.02250E2                9.86370E-1                                     3.20571E-6                                        1.36273E-2
1.06900E3                5.02500E2                5.02500E2                9.88300E-1                                     2.26298E-6                                        1.16981E-2
1.06900E3                5.02750E2                5.02750E2                9.89835E-1                                     1.57135E-6                                        1.01632E-2
1.06900E3                5.03000E2                5.03000E2                9.91033E-1                                     1.09329E-6                                        8.96578E-3
1.06900E3                5.03250E2                5.03250E2                9.91985E-1                                     7.76127E-7                                        8.01445E-3
1.06900E3                5.03500E2                5.03500E2                9.92747E-1                                     5.76561E-7                                        7.25291E-3
1.06900E3                5.03750E2                5.03750E2                9.93349E-1                                     4.61252E-7                                        6.65091E-3
1.06900E3                5.04000E2                5.04000E2                9.93810E-1                                     4.06544E-7                                        6.19005E-3
1.06900E3                5.04250E2                5.04250E2                9.94144E-1                                     3.97549E-7                                        5.85593E-3
1.06900E3                5.04500E2                5.04500E2                9.94371E-1                                     4.23575E-7                                        5.62864E-3
1.06900E3                5.04750E2                5.04750E2                9.94537E-1                                     4.71054E-7                                        5.46233E-3
1.06900E3                5.05000E2                5.05000E2                9.94672E-1                                     5.31796E-7                                        5.32726E-3
1.06900E3                5.05250E2                5.05250E2                9.94804E-1                                     5.96995E-7                                        5.19560E-3
1.06900E3                5.05500E2                5.05500E2                9.94954E-1                                     6.57582E-7                                        5.04580E-3
1.06900E3                5.05750E2                5.05750E2                9.95133E-1                                     7.05591E-7                                        4.86591E-3
1.06900E3                5.06000E2                5.06000E2                9.95341E-1                                     7.29926E-7                                        4.65868E-3
1.06900E3                5.06250E2                5.06250E2                9.95565E-1                                     7.35891E-7                                        4.43442E-3
1.06900E3                5.06500E2                5.06500E2                9.95796E-1                                     7.27428E-7                                        4.20298E-3
1.06900E3                5.06750E2                5.06750E2                9.96026E-1                                     7.08262E-7                                        3.97360E-3
1.06900E3                5.07000E2                5.07000E2                9.96246E-1                                     6.81865E-7                                        3.75344E-3
1.06900E3                5.07250E2                5.07250E2                9.96452E-1                                     6.50890E-7                                        3.54732E-3
1.06900E3                5.07500E2                5.07500E2                9.96628E-1                                     6.18605E-7                                        3.37138E-3
1.06900E3                5.07750E2                5.07750E2                9.96774E-1                                     5.87373E-7                                        3.22539E-3
1.06900E3                5.08000E2                5.08000E2                9.96906E-1                                     5.56457E-7                                        3.09374E-3
1.06900E3                5.08250E2                5.08250E2                9.97024E-1                                     5.26091E-7                                        2.97548E-3
1.06900E3                5.08500E2                5.08500E2                9.97130E-1                                     4.96507E-7                                        2.86960E-3
1.06900E3                5.08750E2                5.08750E2                9.97224E-1                                     4.67966E-7                                        2.77512E-3
1.06900E3                5.09000E2                5.09000E2                9.97307E-1                                     4.41765E-7                                        2.69291E-3
1.06900E3                5.09250E2                5.09250E2                9.97368E-1                                     4.24425E-7                                        2.63159E-3
1.06900E3                5.09500E2                5.09500E2                9.97425E-1                                     4.08005E-7                                        2.57507E-3
1.06900E3                5.09750E2                5.09750E2                9.97477E-1                                     3.92600E-7                                        2.52296E-3
1.06900E3                5.10000E2                5.10000E2                9.97525E-1                                     3.78278E-7                                        2.47478E-3
1.06900E3                5.10250E2                5.10250E2                9.97570E-1                                     3.65041E-7                                        2.42987E-3
1.06900E3                5.10500E2                5.10500E2                9.97612E-1                                     3.52761E-7                                        2.38744E-3
1.06900E3                5.10750E2                5.10750E2                9.97660E-1                                     3.44887E-7                                        2.33963E-3
1.06900E3                5.11000E2                5.11000E2                9.97711E-1                                     3.37663E-7                                        2.28872E-3
1.06900E3                5.11250E2                5.11250E2                9.97764E-1                                     3.29208E-7                                        2.23616E-3
1.06900E3                5.11500E2                5.11500E2                9.97818E-1                                     3.19016E-7                                        2.18157E-3
1.06900E3                5.11750E2                5.11750E2                9.97875E-1                                     3.06877E-7                                        2.12489E-3
1.06900E3                5.12000E2                5.12000E2                9.97933E-1                                     2.93073E-7                                        2.06629E-3
1.06900E3                5.12250E2                5.12250E2                9.98002E-1                                     2.77361E-7                                        1.99755E-3
1.06900E3                5.12500E2                5.12500E2                9.98086E-1                                     2.59851E-7                                        1.91340E-3
1.06900E3                5.12750E2                5.12750E2                9.98172E-1                                     2.43641E-7                                        1.82798E-3
1.06900E3                5.13000E2                5.13000E2                9.98258E-1                                     2.30174E-7                                        1.74208E-3
1.06900E3                5.13250E2                5.13250E2                9.98343E-1                                     2.20324E-7                                        1.65648E-3
1.06900E3                5.13500E2                5.13500E2                9.98428E-1                                     2.14104E-7                                        1.57193E-3
1.06900E3                5.13750E2                5.13750E2                9.98511E-1                                     2.10497E-7                                        1.48913E-3
1.06900E3                5.14000E2                5.14000E2                9.98589E-1                                     2.02866E-7                                        1.41113E-3
1.06900E3                5.14250E2                5.14250E2                9.98657E-1                                     1.95409E-7                                        1.34239E-3
1.06900E3                5.14500E2                5.14500E2                9.98716E-1                                     1.87033E-7                                        1.28367E-3
1.06900E3                5.14750E2                5.14750E2                9.98764E-1                                     1.77174E-7                                        1.23553E-3
1.06900E3                5.15000E2                5.15000E2                9.98802E-1                                     1.65709E-7                                        1.19831E-3
1.06900E3                5.15250E2                5.15250E2                9.98828E-1                                     1.52741E-7                                        1.17206E-3
1.06900E3                5.15500E2                5.15500E2                9.98826E-1                                     1.36767E-7                                        1.17370E-3
1.06900E3                5.15750E2                5.15750E2                9.98800E-1                                     1.18422E-7                                        1.19984E-3
1.06900E3                5.16000E2                5.16000E2                9.98756E-1                                     9.85027E-8                                        1.24360E-3
1.06900E3                5.16250E2                5.16250E2                9.98692E-1                                     7.71591E-8                                        1.30767E-3
1.06900E3                5.16500E2                5.16500E2                9.98602E-1                                     5.48887E-8                                        1.39769E-3
1.06900E3                5.16750E2                5.16750E2                9.98476E-1                                     3.27626E-8                                        1.52442E-3
1.06900E3                5.17000E2                5.17000E2                9.98285E-1                                     1.29449E-8                                        1.71481E-3
1.06900E3                5.17250E2                5.17250E2                9.97990E-1                                     1.02760E-9                                        2.00975E-3
1.06900E3                5.17500E2                5.17500E2                9.97574E-1                                     9.32405E-9                                        2.42639E-3
1.06900E3                5.17750E2                5.17750E2                9.97026E-1                                     6.14490E-8                                        2.97430E-3
1.06900E3                5.18000E2                5.18000E2                9.96476E-1                                     1.88088E-7                                        3.52341E-3
1.06900E3                5.18250E2                5.18250E2                9.96316E-1                                     3.74668E-7                                        3.68376E-3
1.06900E3                5.18500E2                5.18500E2                9.96782E-1                                     5.11515E-7                                        3.21783E-3
1.06900E3                5.18750E2                5.18750E2                9.97442E-1                                     5.10529E-7                                        2.55744E-3
1.06900E3                5.19000E2                5.19000E2                9.97861E-1                                     4.35889E-7                                        2.13824E-3
1.06900E3                5.19250E2                5.19250E2                9.97970E-1                                     3.24865E-7                                        2.03017E-3
1.06900E3                5.19500E2                5.19500E2                9.97802E-1                                     2.25960E-7                                        2.19826E-3
1.06900E3                5.19750E2                5.19750E2                9.97553E-1                                     3.13414E-7                                        2.44698E-3
1.06900E3                5.20000E2                5.20000E2                9.97473E-1                                     6.44053E-7                                        2.52683E-3
1.06900E3                5.20250E2                5.20250E2                9.97464E-1                                     8.65727E-7                                        2.53534E-3