% Model:              cluster_pvk_0_TM_desp_0_sim_SOLVED.mph
% Version:            COMSOL 6.2.0.658
% Date:               Dec 11 2025, 20:48
% Table:              Accumulated Probe Table 13 - 
% h_fib (nm)             lda0 (nm)                lambda0 (nm)             Reflection port 1 (1), Global Variable Probe 1 Transmittance port 2 (1), Global Variable Probe 2 Absorptance total (1), Global Variable Probe 3
1.06800E3                5.10750E2                5.10750E2                9.46802E-1                                     1.51836E-6                                        5.31966E-2
1.06800E3                5.11000E2                5.11000E2                9.46418E-1                                     1.06992E-6                                        5.35813E-2
1.06800E3                5.11250E2                5.11250E2                9.46230E-1                                     8.65384E-7                                        5.37689E-2
1.06800E3                5.11500E2                5.11500E2                9.46214E-1                                     8.67365E-7                                        5.37855E-2
1.06800E3                5.11750E2                5.11750E2                9.46344E-1                                     1.04549E-6                                        5.36547E-2
1.06800E3                5.12000E2                5.12000E2                9.46607E-1                                     1.37640E-6                                        5.33915E-2
1.06800E3                5.12250E2                5.12250E2                9.47001E-1                                     1.84203E-6                                        5.29972E-2
1.06800E3                5.12500E2                5.12500E2                9.47545E-1                                     2.42626E-6                                        5.24524E-2
1.06800E3                5.12750E2                5.12750E2                9.48292E-1                                     3.10886E-6                                        5.17049E-2
1.06800E3                5.13000E2                5.13000E2                9.49348E-1                                     3.85371E-6                                        5.06483E-2
1.06800E3                5.13250E2                5.13250E2                9.50903E-1                                     4.58655E-6                                        4.90920E-2
1.06800E3                5.13500E2                5.13500E2                9.53253E-1                                     5.15921E-6                                        4.67420E-2
1.06800E3                5.13750E2                5.13750E2                9.56711E-1                                     5.32381E-6                                        4.32839E-2
1.06800E3                5.14000E2                5.14000E2                9.61251E-1                                     4.81940E-6                                        3.87441E-2
1.06800E3                5.14250E2                5.14250E2                9.65980E-1                                     3.67803E-6                                        3.40163E-2
1.06800E3                5.14500E2                5.14500E2                9.69444E-1                                     2.37792E-6                                        3.05536E-2
1.06800E3                5.14750E2                5.14750E2                9.70725E-1                                     1.39732E-6                                        2.92733E-2
1.06800E3                5.15000E2                5.15000E2                9.71187E-1                                     1.16991E-5                                        2.88016E-2
1.06800E3                5.15250E2                5.15250E2                9.71054E-1                                     7.30788E-6                                        2.89384E-2
1.06800E3                5.15500E2                5.15500E2                9.70438E-1                                     8.93597E-6                                        2.95535E-2
1.06800E3                5.15750E2                5.15750E2                9.69740E-1                                     1.24481E-5                                        3.02478E-2
1.06800E3                5.16000E2                5.16000E2                9.68861E-1                                     1.92937E-5                                        3.11192E-2
1.06800E3                5.16250E2                5.16250E2                9.66980E-1                                     3.67314E-5                                        3.29837E-2
1.06800E3                5.16500E2                5.16500E2                9.65810E-1                                     2.74444E-5                                        3.41627E-2
1.06800E3                5.16750E2                5.16750E2                9.48116E-1                                     2.06720E-4                                        5.16771E-2
1.06800E3                5.17000E2                5.17000E2                9.45480E-1                                     2.76211E-4                                        5.42439E-2
1.06800E3                5.17250E2                5.17250E2                9.67690E-1                                     2.40142E-5                                        3.22859E-2
1.06800E3                5.17500E2                5.17500E2                9.68309E-1                                     5.83514E-6                                        3.16852E-2
1.06800E3                5.17750E2                5.17750E2                9.67385E-1                                     1.84107E-6                                        3.26137E-2
1.06800E3                5.18000E2                5.18000E2                9.65753E-1                                     5.65221E-7                                        3.42465E-2
1.06800E3                5.18250E2                5.18250E2                9.63423E-1                                     2.20286E-7                                        3.65771E-2
1.06800E3                5.18500E2                5.18500E2                9.60347E-1                                     5.37025E-7                                        3.96524E-2
1.06800E3                5.18750E2                5.18750E2                9.56699E-1                                     1.76331E-6                                        4.32996E-2
1.06800E3                5.19000E2                5.19000E2                9.53177E-1                                     6.32946E-6                                        4.68163E-2
1.06800E3                5.19250E2                5.19250E2                9.41474E-1                                     1.39185E-4                                        5.83871E-2
1.06800E3                5.19500E2                5.19500E2                9.52600E-1                                     1.40497E-5                                        4.73860E-2
1.06800E3                5.19750E2                5.19750E2                9.58124E-1                                     1.19456E-5                                        4.18645E-2
1.06800E3                5.20000E2                5.20000E2                9.64831E-1                                     1.06728E-5                                        3.51588E-2
1.06800E3                5.20250E2                5.20250E2                9.70914E-1                                     9.08174E-6                                        2.90764E-2
1.06800E3                5.20500E2                5.20500E2                9.75629E-1                                     7.46965E-6                                        2.43638E-2
1.06800E3                5.20750E2                5.20750E2                9.79001E-1                                     6.06753E-6                                        2.09933E-2
1.06800E3                5.21000E2                5.21000E2                9.81292E-1                                     4.95700E-6                                        1.87033E-2
1.06800E3                5.21250E2                5.21250E2                9.82747E-1                                     4.14842E-6                                        1.72493E-2
1.06800E3                5.21500E2                5.21500E2                9.83528E-1                                     3.63885E-6                                        1.64687E-2
1.06800E3                5.21750E2                5.21750E2                9.83712E-1                                     3.44404E-6                                        1.62848E-2
1.06800E3                5.22000E2                5.22000E2                9.83295E-1                                     3.62114E-6                                        1.67016E-2
1.06800E3                5.22250E2                5.22250E2                9.82186E-1                                     4.29685E-6                                        1.78099E-2
1.06800E3                5.22500E2                5.22500E2                9.80181E-1                                     5.71769E-6                                        1.98133E-2
1.06800E3                5.22750E2                5.22750E2                9.76906E-1                                     8.35211E-6                                        2.30853E-2
1.06800E3                5.23000E2                5.23000E2                9.71711E-1                                     1.31063E-5                                        2.82757E-2
1.06800E3                5.23250E2                5.23250E2                9.63515E-1                                     2.17766E-5                                        3.64628E-2
1.06800E3                5.23500E2                5.23500E2                9.50803E-1                                     3.78662E-5                                        4.91595E-2
1.06800E3                5.23750E2                5.23750E2                9.32970E-1                                     6.69959E-5                                        6.69632E-2
1.06800E3                5.24000E2                5.24000E2                9.16415E-1                                     1.11217E-4                                        8.34734E-2
1.06800E3                5.24250E2                5.24250E2                9.18440E-1                                     1.53389E-4                                        8.14065E-2
1.06800E3                5.24500E2                5.24500E2                9.39363E-1                                     1.81642E-4                                        6.04549E-2
1.06800E3                5.24750E2                5.24750E2                9.54177E-1                                     2.53914E-4                                        4.55691E-2
1.06800E3                5.25000E2                5.25000E2                9.11432E-1                                     6.68392E-4                                        8.78996E-2
1.06800E3                5.25250E2                5.25250E2                9.06186E-1                                     4.70512E-4                                        9.33438E-2
1.06800E3                5.25500E2                5.25500E2                9.68455E-1                                     1.18415E-4                                        3.14267E-2
1.06800E3                5.25750E2                5.25750E2                9.84312E-1                                     5.93307E-5                                        1.56282E-2
1.06800E3                5.26000E2                5.26000E2                9.90494E-1                                     4.42570E-5                                        9.46168E-3
1.06800E3                5.26250E2                5.26250E2                9.92860E-1                                     5.01788E-5                                        7.08981E-3
1.06800E3                5.26500E2                5.26500E2                9.73575E-1                                     1.06787E-3                                        2.53575E-2
1.06800E3                5.26750E2                5.26750E2                9.89009E-1                                     2.07011E-4                                        1.07840E-2
1.06800E3                5.27000E2                5.27000E2                9.88542E-1                                     6.99973E-5                                        1.13880E-2
1.06800E3                5.27250E2                5.27250E2                9.92772E-1                                     5.18918E-6                                        7.22315E-3
1.06800E3                5.27500E2                5.27500E2                9.88558E-1                                     7.19401E-6                                        1.14352E-2
1.06800E3                5.27750E2                5.27750E2                9.81523E-1                                     1.01781E-5                                        1.84669E-2
1.06800E3                5.28000E2                5.28000E2                9.70592E-1                                     1.39459E-5                                        2.93945E-2
1.06800E3                5.28250E2                5.28250E2                9.54135E-1                                     1.91684E-5                                        4.58459E-2
1.06800E3                5.28500E2                5.28500E2                9.31012E-1                                     2.63644E-5                                        6.89612E-2
1.06800E3                5.28750E2                5.28750E2                9.03937E-1                                     3.48621E-5                                        9.60284E-2
1.06800E3                5.29000E2                5.29000E2                8.84266E-1                                     4.12085E-5                                        1.15693E-1
1.06800E3                5.29250E2                5.29250E2                8.85609E-1                                     4.09662E-5                                        1.14350E-1
1.06800E3                5.29500E2                5.29500E2                9.05539E-1                                     3.45978E-5                                        9.44263E-2
1.06800E3                5.29750E2                5.29750E2                9.30161E-1                                     2.64416E-5                                        6.98128E-2
1.06800E3                5.30000E2                5.30000E2                9.50933E-1                                     1.93880E-5                                        4.90473E-2
1.06900E3                5.00000E2                5.00000E2                9.35827E-1                                     2.31497E-7                                        6.41728E-2
1.06900E3                5.00250E2                5.00250E2                9.35108E-1                                     5.78842E-7                                        6.48917E-2
1.06900E3                5.00500E2                5.00500E2                9.34758E-1                                     1.44043E-6                                        6.52405E-2
1.06900E3                5.00750E2                5.00750E2                9.34396E-1                                     3.86415E-6                                        6.55999E-2
1.06900E3                5.01000E2                5.01000E2                9.32072E-1                                     1.26379E-5                                        6.79156E-2
1.06900E3                5.01250E2                5.01250E2                9.22917E-1                                     3.86385E-5                                        7.70447E-2
1.06900E3                5.01500E2                5.01500E2                9.22372E-1                                     4.79026E-5                                        7.75806E-2
1.06900E3                5.01750E2                5.01750E2                9.28249E-1                                     5.35860E-5                                        7.16979E-2
1.06900E3                5.02000E2                5.02000E2                9.32184E-1                                     1.07278E-4                                        6.77090E-2
1.06900E3                5.02250E2                5.02250E2                9.25631E-1                                     1.63165E-3                                        7.27370E-2
1.06900E3                5.02500E2                5.02500E2                9.46594E-1                                     1.44835E-4                                        5.32608E-2
1.06900E3                5.02750E2                5.02750E2                9.49348E-1                                     1.48973E-5                                        5.06368E-2
1.06900E3                5.03000E2                5.03000E2                9.53284E-1                                     2.64643E-6                                        4.67130E-2
1.06900E3                5.03250E2                5.03250E2                9.56877E-1                                     1.09321E-6                                        4.31221E-2
1.06900E3                5.03500E2                5.03500E2                9.59231E-1                                     2.36058E-6                                        4.07667E-2
1.06900E3                5.03750E2                5.03750E2                9.59699E-1                                     4.77430E-6                                        4.02959E-2
1.06900E3                5.04000E2                5.04000E2                9.58243E-1                                     7.43000E-6                                        4.17496E-2
1.06900E3                5.04250E2                5.04250E2                9.54575E-1                                     1.08062E-5                                        4.54144E-2
1.06900E3                5.04500E2                5.04500E2                9.50833E-1                                     1.25666E-5                                        4.91547E-2
1.06900E3                5.04750E2                5.04750E2                9.46938E-1                                     1.38938E-5                                        5.30476E-2
1.06900E3                5.05000E2                5.05000E2                9.43517E-1                                     1.46001E-5                                        5.64688E-2
1.06900E3                5.05250E2                5.05250E2                9.40812E-1                                     1.47977E-5                                        5.91732E-2
1.06900E3                5.05500E2                5.05500E2                9.38888E-1                                     1.46485E-5                                        6.10969E-2
1.06900E3                5.05750E2                5.05750E2                9.37729E-1                                     1.43381E-5                                        6.22565E-2
1.06900E3                5.06000E2                5.06000E2                9.37309E-1                                     1.41062E-5                                        6.26771E-2
1.06900E3                5.06250E2                5.06250E2                9.37662E-1                                     1.43784E-5                                        6.23234E-2
1.06900E3                5.06500E2                5.06500E2                9.39035E-1                                     1.63483E-5                                        6.09488E-2
1.06900E3                5.06750E2                5.06750E2                9.42650E-1                                     2.64925E-5                                        5.73232E-2
1.06900E3                5.07000E2                5.07000E2                9.04973E-1                                     7.10829E-4                                        9.43159E-2
1.06900E3                5.07250E2                5.07250E2                9.29331E-1                                     1.01096E-5                                        7.06590E-2
1.06900E3                5.07500E2                5.07500E2                9.35831E-1                                     2.55568E-6                                        6.41667E-2
1.06900E3                5.07750E2                5.07750E2                9.39205E-1                                     1.86372E-6                                        6.07929E-2
1.06900E3                5.08000E2                5.08000E2                9.41698E-1                                     1.69586E-6                                        5.83008E-2
1.06900E3                5.08250E2                5.08250E2                9.42940E-1                                     1.43217E-6                                        5.70587E-2
1.06900E3                5.08500E2                5.08500E2                9.40119E-1                                     7.48392E-7                                        5.98804E-2
1.06900E3                5.08750E2                5.08750E2                9.19542E-1                                     2.09465E-6                                        8.04562E-2
1.06900E3                5.09000E2                5.09000E2                9.08750E-1                                     1.90938E-5                                        9.12309E-2
1.06900E3                5.09250E2                5.09250E2                9.41008E-1                                     1.55464E-5                                        5.89769E-2
1.06900E3                5.09500E2                5.09500E2                9.48394E-1                                     1.10097E-5                                        5.15954E-2
1.06900E3                5.09750E2                5.09750E2                9.49581E-1                                     7.92627E-6                                        5.04106E-2
1.06900E3                5.10000E2                5.10000E2                9.49134E-1                                     5.61964E-6                                        5.08608E-2
1.06900E3                5.10250E2                5.10250E2                9.48294E-1                                     3.88022E-6                                        5.17022E-2
1.06900E3                5.10500E2                5.10500E2                9.47494E-1                                     2.61606E-6                                        5.25035E-2
1.06900E3                5.10750E2                5.10750E2                9.46878E-1                                     1.75360E-6                                        5.31207E-2
1.06900E3                5.11000E2                5.11000E2                9.46474E-1                                     1.22518E-6                                        5.35245E-2
1.06900E3                5.11250E2                5.11250E2                9.46270E-1                                     9.71923E-7                                        5.37290E-2
1.06900E3                5.11500E2                5.11500E2                9.46239E-1                                     9.45913E-7                                        5.37603E-2
1.06900E3                5.11750E2                5.11750E2                9.46357E-1                                     1.10998E-6                                        5.36422E-2
1.06900E3                5.12000E2                5.12000E2                9.46609E-1                                     1.43589E-6                                        5.33901E-2
1.06900E3                5.12250E2                5.12250E2                9.46993E-1                                     1.90166E-6                                        5.30055E-2
1.06900E3                5.12500E2                5.12500E2                9.47528E-1                                     2.48769E-6                                        5.24696E-2
1.06900E3                5.12750E2                5.12750E2                9.48266E-1                                     3.17044E-6                                        5.17305E-2
1.06900E3                5.13000E2                5.13000E2                9.49314E-1                                     3.91092E-6                                        5.06824E-2
1.06900E3                5.13250E2                5.13250E2                9.50860E-1                                     4.63296E-6                                        4.91354E-2
1.06900E3                5.13500E2                5.13500E2                9.53198E-1                                     5.18943E-6                                        4.67968E-2
1.06900E3                5.13750E2                5.13750E2                9.56642E-1                                     5.34023E-6                                        4.33530E-2
1.06900E3                5.14000E2                5.14000E2                9.61166E-1                                     4.84399E-6                                        3.88292E-2
1.06900E3                5.14250E2                5.14250E2                9.65884E-1                                     3.76538E-6                                        3.41125E-2
1.06900E3                5.14500E2                5.14500E2                9.69357E-1                                     2.64464E-6                                        3.06400E-2
1.06900E3                5.14750E2                5.14750E2                9.70883E-1                                     1.97401E-6                                        2.91153E-2
1.06900E3                5.15000E2                5.15000E2                9.68105E-1                                     9.86589E-6                                        3.18855E-2
1.06900E3                5.15250E2                5.15250E2                9.71303E-1                                     7.65474E-6                                        2.86890E-2
1.06900E3                5.15500E2                5.15500E2                9.70658E-1                                     7.91024E-6                                        2.93340E-2
1.06900E3                5.15750E2                5.15750E2                9.70023E-1                                     1.03390E-5                                        2.99668E-2
1.06900E3                5.16000E2                5.16000E2                9.69342E-1                                     1.46693E-5                                        3.06433E-2
1.06900E3                5.16250E2                5.16250E2                9.68339E-1                                     2.36293E-5                                        3.16371E-2
1.06900E3                5.16500E2                5.16500E2                9.66176E-1                                     2.41670E-5                                        3.37995E-2
1.06900E3                5.16750E2                5.16750E2                9.63094E-1                                     5.73929E-5                                        3.68485E-2
1.06900E3                5.17000E2                5.17000E2                8.99945E-1                                     6.99719E-4                                        9.93556E-2
1.06900E3                5.17250E2                5.17250E2                9.62139E-1                                     8.37202E-5                                        3.77774E-2
1.06900E3                5.17500E2                5.17500E2                9.67638E-1                                     1.29906E-5                                        3.23489E-2
1.06900E3                5.17750E2                5.17750E2                9.67200E-1                                     3.57222E-6                                        3.27960E-2
1.06900E3                5.18000E2                5.18000E2                9.65675E-1                                     1.05489E-6                                        3.43242E-2
1.06900E3                5.18250E2                5.18250E2                9.63374E-1                                     2.84602E-7                                        3.66261E-2
1.06900E3                5.18500E2                5.18500E2                9.60300E-1                                     3.64619E-7                                        3.97000E-2
1.06900E3                5.18750E2                5.18750E2                9.56632E-1                                     1.21473E-6                                        4.33668E-2
1.06900E3                5.19000E2                5.19000E2                9.53128E-1                                     3.02220E-6                                        4.68687E-2
1.06900E3                5.19250E2                5.19250E2                9.50899E-1                                     1.34184E-5                                        4.90878E-2
1.06900E3                5.19500E2                5.19500E2                9.51341E-1                                     2.93682E-5                                        4.86293E-2
1.06900E3                5.19750E2                5.19750E2                9.57885E-1                                     1.37423E-5                                        4.21014E-2
1.06900E3                5.20000E2                5.20000E2                9.64694E-1                                     1.11985E-5                                        3.52950E-2
1.06900E3                5.20250E2                5.20250E2                9.70828E-1                                     9.21923E-6                                        2.91631E-2