% Model:              cluster_pvk_0_TE_desp_0_sim_SOLVED.mph
% Version:            COMSOL 6.2.0.658
% Date:               Dec 11 2025, 20:39
% Table:              Accumulated Probe Table 13 - 
% h_fib (nm)             lda0 (nm)                lambda0 (nm)             Reflection port 1 (1), Global Variable Probe 1 Transmittance port 2 (1), Global Variable Probe 2 Absorptance total (1), Global Variable Probe 3
1.06800E3                5.10750E2                5.10750E2                9.99299E-1                                     8.62491E-8                                        7.00418E-4
1.06800E3                5.11000E2                5.11000E2                9.99298E-1                                     8.81191E-8                                        7.01794E-4
1.06800E3                5.11250E2                5.11250E2                9.99314E-1                                     1.05324E-7                                        6.86147E-4
1.06800E3                5.11500E2                5.11500E2                9.99344E-1                                     1.40124E-7                                        6.56129E-4
1.06800E3                5.11750E2                5.11750E2                9.99385E-1                                     1.94312E-7                                        6.15214E-4
1.06800E3                5.12000E2                5.12000E2                9.99433E-1                                     2.67714E-7                                        5.66778E-4
1.06800E3                5.12250E2                5.12250E2                9.99486E-1                                     3.57745E-7                                        5.13669E-4
1.06800E3                5.12500E2                5.12500E2                9.99541E-1                                     4.61507E-7                                        4.58138E-4
1.06800E3                5.12750E2                5.12750E2                9.99597E-1                                     5.80249E-7                                        4.02019E-4
1.06800E3                5.13000E2                5.13000E2                9.99652E-1                                     7.24370E-7                                        3.46951E-4
1.06800E3                5.13250E2                5.13250E2                9.99705E-1                                     9.19184E-7                                        2.94516E-4
1.06800E3                5.13500E2                5.13500E2                9.99753E-1                                     1.21732E-6                                        2.46274E-4
1.06800E3                5.13750E2                5.13750E2                9.99794E-1                                     1.73542E-6                                        2.03934E-4
1.06800E3                5.14000E2                5.14000E2                9.99827E-1                                     2.77906E-6                                        1.70453E-4
1.06800E3                5.14250E2                5.14250E2                9.99839E-1                                     5.39312E-6                                        1.55771E-4
1.06800E3                5.14500E2                5.14500E2                9.99763E-1                                     1.53704E-5                                        2.21468E-4
1.06800E3                5.14750E2                5.14750E2                9.97815E-1                                     1.69236E-4                                        2.01566E-3
1.06800E3                5.15000E2                5.15000E2                9.98343E-1                                     9.47628E-5                                        1.56223E-3
1.06800E3                5.15250E2                5.15250E2                9.99667E-1                                     1.23424E-5                                        3.20332E-4
1.06800E3                5.15500E2                5.15500E2                9.99807E-1                                     4.47361E-6                                        1.88587E-4
1.06800E3                5.15750E2                5.15750E2                9.99837E-1                                     2.28870E-6                                        1.61013E-4
1.06800E3                5.16000E2                5.16000E2                9.99818E-1                                     1.73476E-6                                        1.79877E-4
1.06800E3                5.16250E2                5.16250E2                9.99628E-1                                     3.81760E-6                                        3.68516E-4
1.06800E3                5.16500E2                5.16500E2                9.74748E-1                                     1.90927E-4                                        2.50608E-2
1.06800E3                5.16750E2                5.16750E2                9.95861E-1                                     6.83422E-6                                        4.13193E-3
1.06800E3                5.17000E2                5.17000E2                9.89297E-1                                     7.98911E-6                                        1.06950E-2
1.06800E3                5.17250E2                5.17250E2                9.93362E-1                                     2.65074E-5                                        6.61102E-3
1.06800E3                5.17500E2                5.17500E2                9.99076E-1                                     8.65396E-6                                        9.15671E-4
1.06800E3                5.17750E2                5.17750E2                9.99593E-1                                     5.71259E-6                                        4.01244E-4
1.06800E3                5.18000E2                5.18000E2                9.99709E-1                                     4.85876E-6                                        2.86185E-4
1.06800E3                5.18250E2                5.18250E2                9.99726E-1                                     4.89144E-6                                        2.69257E-4
1.06800E3                5.18500E2                5.18500E2                9.99686E-1                                     5.93914E-6                                        3.07620E-4
1.06800E3                5.18750E2                5.18750E2                9.99556E-1                                     1.00563E-5                                        4.34207E-4
1.06800E3                5.19000E2                5.19000E2                9.98583E-1                                     4.93740E-5                                        1.36760E-3
1.06800E3                5.19250E2                5.19250E2                9.98066E-1                                     4.54766E-5                                        1.88852E-3
1.06800E3                5.19500E2                5.19500E2                9.99223E-1                                     2.70009E-6                                        7.74157E-4
1.06800E3                5.19750E2                5.19750E2                9.99114E-1                                     5.88149E-7                                        8.85877E-4
1.06800E3                5.20000E2                5.20000E2                9.98902E-1                                     1.90241E-7                                        1.09739E-3
1.06800E3                5.20250E2                5.20250E2                9.98662E-1                                     8.53044E-8                                        1.33796E-3
1.06800E3                5.20500E2                5.20500E2                9.98440E-1                                     6.25769E-8                                        1.55987E-3
1.06800E3                5.20750E2                5.20750E2                9.98283E-1                                     6.96220E-8                                        1.71657E-3
1.06800E3                5.21000E2                5.21000E2                9.98218E-1                                     8.69328E-8                                        1.78238E-3
1.06800E3                5.21250E2                5.21250E2                9.98236E-1                                     1.05606E-7                                        1.76385E-3
1.06800E3                5.21500E2                5.21500E2                9.98312E-1                                     1.22316E-7                                        1.68774E-3
1.06800E3                5.21750E2                5.21750E2                9.98418E-1                                     1.36783E-7                                        1.58193E-3
1.06800E3                5.22000E2                5.22000E2                9.98534E-1                                     1.49932E-7                                        1.46582E-3
1.06800E3                5.22250E2                5.22250E2                9.98650E-1                                     1.62917E-7                                        1.34985E-3
1.06800E3                5.22500E2                5.22500E2                9.98761E-1                                     1.76789E-7                                        1.23851E-3
1.06800E3                5.22750E2                5.22750E2                9.98867E-1                                     1.92504E-7                                        1.13303E-3
1.06800E3                5.23000E2                5.23000E2                9.98967E-1                                     2.11021E-7                                        1.03312E-3
1.06800E3                5.23250E2                5.23250E2                9.99062E-1                                     2.33473E-7                                        9.37916E-4
1.06800E3                5.23500E2                5.23500E2                9.99153E-1                                     2.61393E-7                                        8.46513E-4
1.06800E3                5.23750E2                5.23750E2                9.99241E-1                                     2.97114E-7                                        7.58272E-4
1.06800E3                5.24000E2                5.24000E2                9.99327E-1                                     3.44467E-7                                        6.73101E-4
1.06800E3                5.24250E2                5.24250E2                9.99408E-1                                     4.09946E-7                                        5.91835E-4
1.06800E3                5.24500E2                5.24500E2                9.99483E-1                                     5.04187E-7                                        5.16992E-4
1.06800E3                5.24750E2                5.24750E2                9.99545E-1                                     6.42199E-7                                        4.54795E-4
1.06800E3                5.25000E2                5.25000E2                9.99576E-1                                     8.35915E-7                                        4.23205E-4
1.06800E3                5.25250E2                5.25250E2                9.99495E-1                                     1.05459E-6                                        5.04179E-4
1.06800E3                5.25500E2                5.25500E2                9.98345E-1                                     1.44373E-6                                        1.65338E-3
1.06800E3                5.25750E2                5.25750E2                9.97482E-1                                     1.12787E-5                                        2.50643E-3
1.06800E3                5.26000E2                5.26000E2                9.99141E-1                                     1.48407E-5                                        8.44067E-4
1.06800E3                5.26250E2                5.26250E2                9.98846E-1                                     3.97507E-5                                        1.11390E-3
1.06800E3                5.26500E2                5.26500E2                9.82874E-1                                     7.39484E-4                                        1.63860E-2
1.06800E3                5.26750E2                5.26750E2                9.96713E-1                                     1.02052E-4                                        3.18534E-3
1.06800E3                5.27000E2                5.27000E2                9.96856E-1                                     6.24474E-5                                        3.08114E-3
1.06800E3                5.27250E2                5.27250E2                9.98846E-1                                     5.98985E-5                                        1.09413E-3
1.06800E3                5.27500E2                5.27500E2                9.99765E-1                                     1.27427E-5                                        2.22339E-4
1.06800E3                5.27750E2                5.27750E2                9.99843E-1                                     6.52555E-6                                        1.50304E-4
1.06800E3                5.28000E2                5.28000E2                9.99855E-1                                     4.19328E-6                                        1.40361E-4
1.06800E3                5.28250E2                5.28250E2                9.99838E-1                                     2.97413E-6                                        1.59382E-4
1.06800E3                5.28500E2                5.28500E2                9.99790E-1                                     2.22338E-6                                        2.07882E-4
1.06800E3                5.28750E2                5.28750E2                9.99704E-1                                     1.72418E-6                                        2.94598E-4
1.06800E3                5.29000E2                5.29000E2                9.99566E-1                                     1.38703E-6                                        4.32711E-4
1.06800E3                5.29250E2                5.29250E2                9.99361E-1                                     1.16810E-6                                        6.37460E-4
1.06800E3                5.29500E2                5.29500E2                9.99077E-1                                     1.04331E-6                                        9.21479E-4
1.06800E3                5.29750E2                5.29750E2                9.98713E-1                                     9.99050E-7                                        1.28606E-3
1.06800E3                5.30000E2                5.30000E2                9.98290E-1                                     1.02722E-6                                        1.70942E-3
1.06900E3                5.00000E2                5.00000E2                9.99384E-1                                     1.06216E-6                                        6.14714E-4
1.06900E3                5.00250E2                5.00250E2                9.99381E-1                                     1.14887E-6                                        6.18172E-4
1.06900E3                5.00500E2                5.00500E2                9.99377E-1                                     1.23758E-6                                        6.22071E-4
1.06900E3                5.00750E2                5.00750E2                9.99372E-1                                     1.26415E-6                                        6.26668E-4
1.06900E3                5.01000E2                5.01000E2                9.99373E-1                                     1.14110E-6                                        6.25503E-4
1.06900E3                5.01250E2                5.01250E2                9.99392E-1                                     8.92246E-7                                        6.07043E-4
1.06900E3                5.01500E2                5.01500E2                9.99427E-1                                     6.82794E-7                                        5.72219E-4
1.06900E3                5.01750E2                5.01750E2                9.99467E-1                                     6.35596E-7                                        5.32602E-4
1.06900E3                5.02000E2                5.02000E2                9.99502E-1                                     1.04888E-6                                        4.96531E-4
1.06900E3                5.02250E2                5.02250E2                9.99246E-1                                     5.67977E-5                                        6.97463E-4
1.06900E3                5.02500E2                5.02500E2                9.99558E-1                                     1.04160E-6                                        4.40879E-4
1.06900E3                5.02750E2                5.02750E2                9.99585E-1                                     5.05132E-7                                        4.14797E-4
1.06900E3                5.03000E2                5.03000E2                9.99601E-1                                     6.40683E-7                                        3.98121E-4
1.06900E3                5.03250E2                5.03250E2                9.99608E-1                                     1.15215E-6                                        3.91020E-4
1.06900E3                5.03500E2                5.03500E2                9.99592E-1                                     2.69989E-6                                        4.05033E-4
1.06900E3                5.03750E2                5.03750E2                9.99478E-1                                     1.00025E-5                                        5.11762E-4
1.06900E3                5.04000E2                5.04000E2                9.95628E-1                                     2.87130E-4                                        4.08503E-3
1.06900E3                5.04250E2                5.04250E2                9.99390E-1                                     3.65077E-5                                        5.73573E-4
1.06900E3                5.04500E2                5.04500E2                9.99685E-1                                     7.72526E-6                                        3.06909E-4
1.06900E3                5.04750E2                5.04750E2                9.99722E-1                                     3.61249E-6                                        2.74203E-4
1.06900E3                5.05000E2                5.05000E2                9.99733E-1                                     2.25445E-6                                        2.64567E-4
1.06900E3                5.05250E2                5.05250E2                9.99737E-1                                     1.64327E-6                                        2.61827E-4
1.06900E3                5.05500E2                5.05500E2                9.99735E-1                                     1.33176E-6                                        2.63688E-4
1.06900E3                5.05750E2                5.05750E2                9.99727E-1                                     1.19207E-6                                        2.71784E-4
1.06900E3                5.06000E2                5.06000E2                9.99706E-1                                     1.22851E-6                                        2.92439E-4
1.06900E3                5.06250E2                5.06250E2                9.99653E-1                                     1.63611E-6                                        3.45001E-4
1.06900E3                5.06500E2                5.06500E2                9.99488E-1                                     3.51317E-6                                        5.08963E-4
1.06900E3                5.06750E2                5.06750E2                9.98470E-1                                     2.19944E-5                                        1.50790E-3
1.06900E3                5.07000E2                5.07000E2                9.17280E-1                                     2.77960E-5                                        8.26918E-2
1.06900E3                5.07250E2                5.07250E2                9.99180E-1                                     5.88579E-6                                        8.14402E-4
1.06900E3                5.07500E2                5.07500E2                9.99647E-1                                     2.40347E-6                                        3.50759E-4
1.06900E3                5.07750E2                5.07750E2                9.99705E-1                                     1.45001E-6                                        2.93981E-4
1.06900E3                5.08000E2                5.08000E2                9.99674E-1                                     1.12027E-6                                        3.24735E-4
1.06900E3                5.08250E2                5.08250E2                9.99572E-1                                     1.09519E-6                                        4.26442E-4
1.06900E3                5.08500E2                5.08500E2                9.99328E-1                                     1.41822E-6                                        6.70156E-4
1.06900E3                5.08750E2                5.08750E2                9.98671E-1                                     2.54314E-6                                        1.32695E-3
1.06900E3                5.09000E2                5.09000E2                9.97758E-1                                     3.94543E-6                                        2.23800E-3
1.06900E3                5.09250E2                5.09250E2                9.98714E-1                                     1.83462E-6                                        1.28410E-3
1.06900E3                5.09500E2                5.09500E2                9.99239E-1                                     7.26286E-7                                        7.60626E-4
1.06900E3                5.09750E2                5.09750E2                9.99363E-1                                     3.66790E-7                                        6.36171E-4
1.06900E3                5.10000E2                5.10000E2                9.99371E-1                                     2.20807E-7                                        6.29155E-4
1.06900E3                5.10250E2                5.10250E2                9.99344E-1                                     1.49334E-7                                        6.55770E-4
1.06900E3                5.10500E2                5.10500E2                9.99315E-1                                     1.11471E-7                                        6.84821E-4
1.06900E3                5.10750E2                5.10750E2                9.99297E-1                                     9.37693E-8                                        7.02544E-4
1.06900E3                5.11000E2                5.11000E2                9.99296E-1                                     9.23073E-8                                        7.03750E-4
1.06900E3                5.11250E2                5.11250E2                9.99312E-1                                     1.07039E-7                                        6.88249E-4
1.06900E3                5.11500E2                5.11500E2                9.99341E-1                                     1.39302E-7                                        6.58485E-4
1.06900E3                5.11750E2                5.11750E2                9.99382E-1                                     1.89893E-7                                        6.17873E-4
1.06900E3                5.12000E2                5.12000E2                9.99430E-1                                     2.57351E-7                                        5.69779E-4
1.06900E3                5.12250E2                5.12250E2                9.99483E-1                                     3.37642E-7                                        5.17051E-4
1.06900E3                5.12500E2                5.12500E2                9.99538E-1                                     4.26611E-7                                        4.61949E-4
1.06900E3                5.12750E2                5.12750E2                9.99593E-1                                     5.24283E-7                                        4.06317E-4
1.06900E3                5.13000E2                5.13000E2                9.99648E-1                                     6.38508E-7                                        3.51808E-4
1.06900E3                5.13250E2                5.13250E2                9.99699E-1                                     7.87897E-7                                        2.99993E-4
1.06900E3                5.13500E2                5.13500E2                9.99747E-1                                     1.00820E-6                                        2.52356E-4
1.06900E3                5.13750E2                5.13750E2                9.99788E-1                                     1.37149E-6                                        2.10326E-4
1.06900E3                5.14000E2                5.14000E2                9.99822E-1                                     2.04552E-6                                        1.75801E-4
1.06900E3                5.14250E2                5.14250E2                9.99843E-1                                     3.50999E-6                                        1.53554E-4
1.06900E3                5.14500E2                5.14500E2                9.99829E-1                                     7.65899E-6                                        1.63757E-4
1.06900E3                5.14750E2                5.14750E2                9.99598E-1                                     2.89588E-5                                        3.72703E-4
1.06900E3                5.15000E2                5.15000E2                8.73400E-1                                     9.15504E-3                                        1.17445E-1
1.06900E3                5.15250E2                5.15250E2                9.99323E-1                                     3.56729E-5                                        6.41193E-4
1.06900E3                5.15500E2                5.15500E2                9.99757E-1                                     8.24588E-6                                        2.34290E-4
1.06900E3                5.15750E2                5.15750E2                9.99829E-1                                     3.48094E-6                                        1.67222E-4
1.06900E3                5.16000E2                5.16000E2                9.99837E-1                                     1.98655E-6                                        1.60860E-4
1.06900E3                5.16250E2                5.16250E2                9.99792E-1                                     1.98442E-6                                        2.06147E-4
1.06900E3                5.16500E2                5.16500E2                9.99203E-1                                     8.58703E-6                                        7.88784E-4
1.06900E3                5.16750E2                5.16750E2                9.83821E-1                                     8.09387E-5                                        1.60976E-2
1.06900E3                5.17000E2                5.17000E2                9.95729E-1                                     3.50011E-6                                        4.26755E-3
1.06900E3                5.17250E2                5.17250E2                9.72093E-1                                     4.22742E-5                                        2.78645E-2
1.06900E3                5.17500E2                5.17500E2                9.97440E-1                                     1.47648E-5                                        2.54528E-3
1.06900E3                5.17750E2                5.17750E2                9.99365E-1                                     6.94117E-6                                        6.28103E-4
1.06900E3                5.18000E2                5.18000E2                9.99644E-1                                     5.08450E-6                                        3.50846E-4
1.06900E3                5.18250E2                5.18250E2                9.99704E-1                                     4.55077E-6                                        2.91945E-4
1.06900E3                5.18500E2                5.18500E2                9.99687E-1                                     4.78800E-6                                        3.07834E-4
1.06900E3                5.18750E2                5.18750E2                9.99608E-1                                     6.26155E-6                                        3.85424E-4
1.06900E3                5.19000E2                5.19000E2                9.99368E-1                                     1.29901E-5                                        6.18998E-4
1.06900E3                5.19250E2                5.19250E2                9.91912E-1                                     2.74012E-4                                        7.81352E-3
1.06900E3                5.19500E2                5.19500E2                9.98883E-1                                     1.16867E-5                                        1.10567E-3
1.06900E3                5.19750E2                5.19750E2                9.99072E-1                                     1.44380E-6                                        9.26787E-4
1.06900E3                5.20000E2                5.20000E2                9.98891E-1                                     3.73767E-7                                        1.10865E-3
1.06900E3                5.20250E2                5.20250E2                9.98658E-1                                     1.31336E-7                                        1.34199E-3