% Model:              cluster_pvk_2_TE_desp_0_sim_SOLVED.mph
% Version:            COMSOL 6.2.0.658
% Date:               Dec 11 2025, 20:46
% Table:              Accumulated Probe Table 13 - 
% h_fib (nm)             lda0 (nm)                lambda0 (nm)             Reflection port 1 (1), Global Variable Probe 1 Transmittance port 2 (1), Global Variable Probe 2 Absorptance total (1), Global Variable Probe 3
1.06800E3                5.10750E2                5.10750E2                9.96861E-1                                     9.03760E-9                                        3.13894E-3
1.06800E3                5.11000E2                5.11000E2                9.96931E-1                                     1.58770E-8                                        3.06933E-3
1.06800E3                5.11250E2                5.11250E2                9.97008E-1                                     2.89509E-8                                        2.99203E-3
1.06800E3                5.11500E2                5.11500E2                9.97088E-1                                     4.60228E-8                                        2.91207E-3
1.06800E3                5.11750E2                5.11750E2                9.97167E-1                                     6.46854E-8                                        2.83291E-3
1.06800E3                5.12000E2                5.12000E2                9.97243E-1                                     8.30432E-8                                        2.75658E-3
1.06800E3                5.12250E2                5.12250E2                9.97305E-1                                     1.00499E-7                                        2.69520E-3
1.06800E3                5.12500E2                5.12500E2                9.97343E-1                                     1.17162E-7                                        2.65726E-3
1.06800E3                5.12750E2                5.12750E2                9.97374E-1                                     1.32063E-7                                        2.62567E-3
1.06800E3                5.13000E2                5.13000E2                9.97399E-1                                     1.45235E-7                                        2.60067E-3
1.06800E3                5.13250E2                5.13250E2                9.97417E-1                                     1.56803E-7                                        2.58269E-3
1.06800E3                5.13500E2                5.13500E2                9.97427E-1                                     1.66924E-7                                        2.57249E-3
1.06800E3                5.13750E2                5.13750E2                9.97428E-1                                     1.75731E-7                                        2.57168E-3
1.06800E3                5.14000E2                5.14000E2                9.97405E-1                                     1.81439E-7                                        2.59439E-3
1.06800E3                5.14250E2                5.14250E2                9.97375E-1                                     1.84724E-7                                        2.62449E-3
1.06800E3                5.14500E2                5.14500E2                9.97339E-1                                     1.85403E-7                                        2.66118E-3
1.06800E3                5.14750E2                5.14750E2                9.97297E-1                                     1.83328E-7                                        2.70233E-3
1.06800E3                5.15000E2                5.15000E2                9.97256E-1                                     1.78279E-7                                        2.74383E-3
1.06800E3                5.15250E2                5.15250E2                9.97221E-1                                     1.69766E-7                                        2.77920E-3
1.06800E3                5.15500E2                5.15500E2                9.97218E-1                                     1.53677E-7                                        2.78157E-3
1.06800E3                5.15750E2                5.15750E2                9.97255E-1                                     1.31992E-7                                        2.74471E-3
1.06800E3                5.16000E2                5.16000E2                9.97328E-1                                     1.07817E-7                                        2.67201E-3
1.06800E3                5.16250E2                5.16250E2                9.97436E-1                                     8.35310E-8                                        2.56427E-3
1.06800E3                5.16500E2                5.16500E2                9.97572E-1                                     6.23471E-8                                        2.42812E-3
1.06800E3                5.16750E2                5.16750E2                9.97727E-1                                     4.76343E-8                                        2.27306E-3
1.06800E3                5.17000E2                5.17000E2                9.97892E-1                                     4.32443E-8                                        2.10824E-3
1.06800E3                5.17250E2                5.17250E2                9.98053E-1                                     5.07055E-8                                        1.94705E-3
1.06800E3                5.17500E2                5.17500E2                9.98204E-1                                     6.46846E-8                                        1.79601E-3
1.06800E3                5.17750E2                5.17750E2                9.98335E-1                                     8.18329E-8                                        1.66481E-3
1.06800E3                5.18000E2                5.18000E2                9.98435E-1                                     9.87263E-8                                        1.56483E-3
1.06800E3                5.18250E2                5.18250E2                9.98494E-1                                     1.12559E-7                                        1.50606E-3
1.06800E3                5.18500E2                5.18500E2                9.98505E-1                                     1.21597E-7                                        1.49511E-3
1.06800E3                5.18750E2                5.18750E2                9.98443E-1                                     1.24365E-7                                        1.55735E-3
1.06800E3                5.19000E2                5.19000E2                9.98325E-1                                     1.28281E-7                                        1.67516E-3
1.06800E3                5.19250E2                5.19250E2                9.98153E-1                                     1.40397E-7                                        1.84637E-3
1.06800E3                5.19500E2                5.19500E2                9.97936E-1                                     1.65394E-7                                        2.06360E-3
1.06800E3                5.19750E2                5.19750E2                9.97692E-1                                     2.03879E-7                                        2.30790E-3
1.06800E3                5.20000E2                5.20000E2                9.97449E-1                                     2.54308E-7                                        2.55089E-3
1.06800E3                5.20250E2                5.20250E2                9.97220E-1                                     3.16533E-7                                        2.77999E-3
1.06800E3                5.20500E2                5.20500E2                9.97007E-1                                     3.95750E-7                                        2.99258E-3
1.06800E3                5.20750E2                5.20750E2                9.96789E-1                                     5.07656E-7                                        3.21023E-3
1.06800E3                5.21000E2                5.21000E2                9.96498E-1                                     6.84063E-7                                        3.50083E-3
1.06800E3                5.21250E2                5.21250E2                9.96013E-1                                     9.88799E-7                                        3.98570E-3
1.06800E3                5.21500E2                5.21500E2                9.95113E-1                                     1.55321E-6                                        4.88516E-3
1.06800E3                5.21750E2                5.21750E2                9.93475E-1                                     2.58427E-6                                        6.52205E-3
1.06800E3                5.22000E2                5.22000E2                9.91466E-1                                     3.85359E-6                                        8.52966E-3
1.06800E3                5.22250E2                5.22250E2                9.91282E-1                                     4.04334E-6                                        8.71381E-3
1.06800E3                5.22500E2                5.22500E2                9.93328E-1                                     2.77329E-6                                        6.66890E-3
1.06800E3                5.22750E2                5.22750E2                9.95100E-1                                     1.52215E-6                                        4.89853E-3
1.06800E3                5.23000E2                5.23000E2                9.95939E-1                                     6.91046E-7                                        4.06001E-3
1.06800E3                5.23250E2                5.23250E2                9.95963E-1                                     1.67206E-7                                        4.03654E-3
1.06800E3                5.23500E2                5.23500E2                9.95072E-1                                     1.39090E-7                                        4.92836E-3
1.06800E3                5.23750E2                5.23750E2                9.93661E-1                                     1.58136E-6                                        6.33773E-3
1.06800E3                5.24000E2                5.24000E2                9.94307E-1                                     3.66067E-6                                        5.68961E-3
1.06800E3                5.24250E2                5.24250E2                9.95475E-1                                     3.73508E-6                                        4.52100E-3
1.06800E3                5.24500E2                5.24500E2                9.95391E-1                                     3.01975E-6                                        4.60554E-3
1.06800E3                5.24750E2                5.24750E2                9.94606E-1                                     2.85845E-6                                        5.39112E-3
1.06800E3                5.25000E2                5.25000E2                9.90410E-1                                     4.26108E-6                                        9.58541E-3
1.06800E3                5.25250E2                5.25250E2                9.87182E-1                                     3.28190E-6                                        1.28149E-2
1.06800E3                5.25500E2                5.25500E2                9.94938E-1                                     4.83978E-7                                        5.06168E-3
1.06800E3                5.25750E2                5.25750E2                9.97807E-1                                     3.06051E-8                                        2.19257E-3
1.06800E3                5.26000E2                5.26000E2                9.98779E-1                                     4.74634E-9                                        1.22121E-3
1.06800E3                5.26250E2                5.26250E2                9.99202E-1                                     3.97039E-8                                        7.98388E-4
1.06800E3                5.26500E2                5.26500E2                9.99421E-1                                     8.05316E-8                                        5.78907E-4
1.06800E3                5.26750E2                5.26750E2                9.99541E-1                                     1.18085E-7                                        4.59096E-4
1.06800E3                5.27000E2                5.27000E2                9.99615E-1                                     1.51702E-7                                        3.85226E-4
1.06800E3                5.27250E2                5.27250E2                9.99657E-1                                     1.81375E-7                                        3.42987E-4
1.06800E3                5.27500E2                5.27500E2                9.99672E-1                                     2.07763E-7                                        3.28233E-4
1.06800E3                5.27750E2                5.27750E2                9.99657E-1                                     2.32831E-7                                        3.42723E-4
1.06800E3                5.28000E2                5.28000E2                9.99607E-1                                     2.60364E-7                                        3.92611E-4
1.06800E3                5.28250E2                5.28250E2                9.99509E-1                                     2.95338E-7                                        4.90683E-4
1.06800E3                5.28500E2                5.28500E2                9.99351E-1                                     3.42905E-7                                        6.48810E-4
1.06800E3                5.28750E2                5.28750E2                9.99117E-1                                     4.07058E-7                                        8.82130E-4
1.06800E3                5.29000E2                5.29000E2                9.98794E-1                                     4.89560E-7                                        1.20578E-3
1.06800E3                5.29250E2                5.29250E2                9.98372E-1                                     5.89017E-7                                        1.62722E-3
1.06800E3                5.29500E2                5.29500E2                9.97863E-1                                     6.99460E-7                                        2.13601E-3
1.06800E3                5.29750E2                5.29750E2                9.97304E-1                                     8.08439E-7                                        2.69481E-3
1.06800E3                5.30000E2                5.30000E2                9.96762E-1                                     8.97748E-7                                        3.23685E-3
1.06900E3                5.00000E2                5.00000E2                9.96222E-1                                     4.82698E-7                                        3.77707E-3
1.06900E3                5.00250E2                5.00250E2                9.96167E-1                                     4.74783E-7                                        3.83235E-3
1.06900E3                5.00500E2                5.00500E2                9.96095E-1                                     4.62639E-7                                        3.90455E-3
1.06900E3                5.00750E2                5.00750E2                9.96010E-1                                     4.49007E-7                                        3.98944E-3
1.06900E3                5.01000E2                5.01000E2                9.95918E-1                                     4.35854E-7                                        4.08190E-3
1.06900E3                5.01250E2                5.01250E2                9.95827E-1                                     4.23520E-7                                        4.17235E-3
1.06900E3                5.01500E2                5.01500E2                9.95744E-1                                     4.12918E-7                                        4.25554E-3
1.06900E3                5.01750E2                5.01750E2                9.95672E-1                                     4.03721E-7                                        4.32753E-3
1.06900E3                5.02000E2                5.02000E2                9.95614E-1                                     3.95179E-7                                        4.38544E-3
1.06900E3                5.02250E2                5.02250E2                9.95572E-1                                     3.86338E-7                                        4.42766E-3
1.06900E3                5.02500E2                5.02500E2                9.95546E-1                                     3.76197E-7                                        4.45384E-3
1.06900E3                5.02750E2                5.02750E2                9.95544E-1                                     3.62663E-7                                        4.45526E-3
1.06900E3                5.03000E2                5.03000E2                9.95564E-1                                     3.45285E-7                                        4.43570E-3
1.06900E3                5.03250E2                5.03250E2                9.95595E-1                                     3.24726E-7                                        4.40459E-3
1.06900E3                5.03500E2                5.03500E2                9.95635E-1                                     3.01088E-7                                        4.36423E-3
1.06900E3                5.03750E2                5.03750E2                9.95683E-1                                     2.74683E-7                                        4.31648E-3
1.06900E3                5.04000E2                5.04000E2                9.95737E-1                                     2.45947E-7                                        4.26257E-3
1.06900E3                5.04250E2                5.04250E2                9.95800E-1                                     2.15128E-7                                        4.19963E-3
1.06900E3                5.04500E2                5.04500E2                9.95880E-1                                     1.82524E-7                                        4.11965E-3
1.06900E3                5.04750E2                5.04750E2                9.95962E-1                                     1.50902E-7                                        4.03815E-3
1.06900E3                5.05000E2                5.05000E2                9.96044E-1                                     1.21805E-7                                        3.95618E-3
1.06900E3                5.05250E2                5.05250E2                9.96125E-1                                     9.66483E-8                                        3.87495E-3
1.06900E3                5.05500E2                5.05500E2                9.96204E-1                                     7.62539E-8                                        3.79565E-3
1.06900E3                5.05750E2                5.05750E2                9.96281E-1                                     6.06684E-8                                        3.71930E-3
1.06900E3                5.06000E2                5.06000E2                9.96360E-1                                     4.93984E-8                                        3.64001E-3
1.06900E3                5.06250E2                5.06250E2                9.96435E-1                                     4.16421E-8                                        3.56521E-3
1.06900E3                5.06500E2                5.06500E2                9.96504E-1                                     3.65141E-8                                        3.49631E-3
1.06900E3                5.06750E2                5.06750E2                9.96567E-1                                     3.33339E-8                                        3.43346E-3
1.06900E3                5.07000E2                5.07000E2                9.96623E-1                                     3.16558E-8                                        3.37707E-3
1.06900E3                5.07250E2                5.07250E2                9.96672E-1                                     3.12307E-8                                        3.32783E-3
1.06900E3                5.07500E2                5.07500E2                9.96714E-1                                     3.20339E-8                                        3.28613E-3
1.06900E3                5.07750E2                5.07750E2                9.96747E-1                                     3.39586E-8                                        3.25261E-3
1.06900E3                5.08000E2                5.08000E2                9.96771E-1                                     3.68090E-8                                        3.22900E-3
1.06900E3                5.08250E2                5.08250E2                9.96784E-1                                     4.03815E-8                                        3.21639E-3
1.06900E3                5.08500E2                5.08500E2                9.96785E-1                                     4.42470E-8                                        3.21522E-3
1.06900E3                5.08750E2                5.08750E2                9.96775E-1                                     4.76710E-8                                        3.22463E-3
1.06900E3                5.09000E2                5.09000E2                9.96757E-1                                     4.96260E-8                                        3.24282E-3
1.06900E3                5.09250E2                5.09250E2                9.96730E-1                                     4.89771E-8                                        3.27019E-3
1.06900E3                5.09500E2                5.09500E2                9.96707E-1                                     4.45652E-8                                        3.29247E-3
1.06900E3                5.09750E2                5.09750E2                9.96698E-1                                     3.63317E-8                                        3.30179E-3
1.06900E3                5.10000E2                5.10000E2                9.96709E-1                                     2.57426E-8                                        3.29134E-3
1.06900E3                5.10250E2                5.10250E2                9.96743E-1                                     1.57829E-8                                        3.25732E-3
1.06900E3                5.10500E2                5.10500E2                9.96800E-1                                     9.99334E-9                                        3.20000E-3
1.06900E3                5.10750E2                5.10750E2                9.96861E-1                                     1.11638E-8                                        3.13878E-3
1.06900E3                5.11000E2                5.11000E2                9.96931E-1                                     1.99202E-8                                        3.06879E-3
1.06900E3                5.11250E2                5.11250E2                9.97009E-1                                     3.47617E-8                                        2.99106E-3
1.06900E3                5.11500E2                5.11500E2                9.97089E-1                                     5.30944E-8                                        2.91058E-3
1.06900E3                5.11750E2                5.11750E2                9.97169E-1                                     7.23312E-8                                        2.83083E-3
1.06900E3                5.12000E2                5.12000E2                9.97246E-1                                     9.05835E-8                                        2.75381E-3
1.06900E3                5.12250E2                5.12250E2                9.97308E-1                                     1.07454E-7                                        2.69174E-3
1.06900E3                5.12500E2                5.12500E2                9.97347E-1                                     1.23289E-7                                        2.65325E-3
1.06900E3                5.12750E2                5.12750E2                9.97379E-1                                     1.37185E-7                                        2.62108E-3
1.06900E3                5.13000E2                5.13000E2                9.97404E-1                                     1.49321E-7                                        2.59550E-3
1.06900E3                5.13250E2                5.13250E2                9.97423E-1                                     1.59942E-7                                        2.57697E-3
1.06900E3                5.13500E2                5.13500E2                9.97434E-1                                     1.69302E-7                                        2.56630E-3
1.06900E3                5.13750E2                5.13750E2                9.97435E-1                                     1.77619E-7                                        2.56519E-3
1.06900E3                5.14000E2                5.14000E2                9.97410E-1                                     1.83549E-7                                        2.58967E-3
1.06900E3                5.14250E2                5.14250E2                9.97377E-1                                     1.87560E-7                                        2.62266E-3
1.06900E3                5.14500E2                5.14500E2                9.97336E-1                                     1.89521E-7                                        2.66367E-3
1.06900E3                5.14750E2                5.14750E2                9.97289E-1                                     1.89302E-7                                        2.71090E-3
1.06900E3                5.15000E2                5.15000E2                9.97239E-1                                     1.86665E-7                                        2.76067E-3
1.06900E3                5.15250E2                5.15250E2                9.97193E-1                                     1.81026E-7                                        2.80697E-3
1.06900E3                5.15500E2                5.15500E2                9.97177E-1                                     1.67365E-7                                        2.82308E-3
1.06900E3                5.15750E2                5.15750E2                9.97199E-1                                     1.46912E-7                                        2.80108E-3
1.06900E3                5.16000E2                5.16000E2                9.97258E-1                                     1.22427E-7                                        2.74215E-3
1.06900E3                5.16250E2                5.16250E2                9.97355E-1                                     9.59278E-8                                        2.64452E-3
1.06900E3                5.16500E2                5.16500E2                9.97487E-1                                     7.07139E-8                                        2.51317E-3
1.06900E3                5.16750E2                5.16750E2                9.97642E-1                                     5.07241E-8                                        2.35806E-3
1.06900E3                5.17000E2                5.17000E2                9.97810E-1                                     4.08370E-8                                        2.18967E-3
1.06900E3                5.17250E2                5.17250E2                9.97978E-1                                     4.39872E-8                                        2.02177E-3
1.06900E3                5.17500E2                5.17500E2                9.98138E-1                                     5.51749E-8                                        1.86209E-3
1.06900E3                5.17750E2                5.17750E2                9.98280E-1                                     7.09729E-8                                        1.71966E-3
1.06900E3                5.18000E2                5.18000E2                9.98393E-1                                     8.76155E-8                                        1.60643E-3
1.06900E3                5.18250E2                5.18250E2                9.98466E-1                                     1.02130E-7                                        1.53395E-3
1.06900E3                5.18500E2                5.18500E2                9.98489E-1                                     1.12913E-7                                        1.51051E-3
1.06900E3                5.18750E2                5.18750E2                9.98437E-1                                     1.18158E-7                                        1.56249E-3
1.06900E3                5.19000E2                5.19000E2                9.98328E-1                                     1.24003E-7                                        1.67143E-3
1.06900E3                5.19250E2                5.19250E2                9.98166E-1                                     1.36197E-7                                        1.83397E-3
1.06900E3                5.19500E2                5.19500E2                9.97958E-1                                     1.59067E-7                                        2.04176E-3
1.06900E3                5.19750E2                5.19750E2                9.97725E-1                                     1.93581E-7                                        2.27506E-3
1.06900E3                5.20000E2                5.20000E2                9.97495E-1                                     2.38377E-7                                        2.50435E-3
1.06900E3                5.20250E2                5.20250E2                9.97285E-1                                     2.92927E-7                                        2.71479E-3