% Model:              cluster_pvk_0_TE_desp_0_SOLVED.mph
% Version:            COMSOL 6.2.0.658
% Date:               Dec 8 2025, 12:15
% Table:              Accumulated Probe Table 13 - 
% h_fib (nm)             lda0 (nm)                lambda0 (nm)             Reflection port 1 (1), Global Variable Probe 1 Transmittance port 2 (1), Global Variable Probe 2 Absorptance total (1), Global Variable Probe 3
1.06800E3                5.10750E2                5.10750E2                9.99946E-1                                     2.75581E-7                                        5.38940E-5
1.06800E3                5.11000E2                5.11000E2                9.99943E-1                                     2.59019E-7                                        5.66438E-5
1.06800E3                5.11250E2                5.11250E2                9.99942E-1                                     2.44594E-7                                        5.80384E-5
1.06800E3                5.11500E2                5.11500E2                9.99942E-1                                     2.33474E-7                                        5.80484E-5
1.06800E3                5.11750E2                5.11750E2                9.99943E-1                                     2.24552E-7                                        5.65123E-5
1.06800E3                5.12000E2                5.12000E2                9.99946E-1                                     2.18780E-7                                        5.39510E-5
1.06800E3                5.12250E2                5.12250E2                9.99950E-1                                     2.47067E-7                                        4.93350E-5
1.06800E3                5.12500E2                5.12500E2                9.99957E-1                                     2.57549E-7                                        4.23886E-5
1.06800E3                5.12750E2                5.12750E2                9.99962E-1                                     2.82158E-7                                        3.80383E-5
1.06800E3                5.13000E2                5.13000E2                9.99965E-1                                     3.48631E-7                                        3.49182E-5
1.06800E3                5.13250E2                5.13250E2                9.99965E-1                                     5.05191E-7                                        3.43853E-5
1.06800E3                5.13500E2                5.13500E2                9.99959E-1                                     9.16444E-7                                        3.98178E-5
1.06800E3                5.13750E2                5.13750E2                9.99933E-1                                     2.35355E-6                                        6.48502E-5
1.06800E3                5.14000E2                5.14000E2                9.99747E-1                                     1.29708E-5                                        2.40311E-4
1.06800E3                5.14250E2                5.14250E2                9.93116E-1                                     4.58153E-4                                        6.42566E-3
1.06800E3                5.14500E2                5.14500E2                9.99852E-1                                     1.03476E-5                                        1.37241E-4
1.06800E3                5.14750E2                5.14750E2                9.99932E-1                                     3.70138E-6                                        6.41579E-5
1.06800E3                5.15000E2                5.15000E2                9.99936E-1                                     2.15601E-6                                        6.19870E-5
1.06800E3                5.15250E2                5.15250E2                9.99917E-1                                     1.58236E-6                                        8.09728E-5
1.06800E3                5.15500E2                5.15500E2                9.99865E-1                                     1.50223E-6                                        1.33836E-4
1.06800E3                5.15750E2                5.15750E2                9.99256E-1                                     4.89460E-6                                        7.38929E-4
1.06800E3                5.16000E2                5.16000E2                9.97951E-1                                     5.43209E-6                                        2.04312E-3
1.06800E3                5.16250E2                5.16250E2                9.97847E-1                                     1.36765E-6                                        2.15138E-3
1.06800E3                5.16500E2                5.16500E2                9.95933E-1                                     4.69837E-6                                        4.06231E-3
1.06800E3                5.16750E2                5.16750E2                9.99635E-1                                     2.26860E-6                                        3.62808E-4
1.06800E3                5.17000E2                5.17000E2                9.99861E-1                                     1.88116E-6                                        1.36674E-4
1.06800E3                5.17250E2                5.17250E2                9.99899E-1                                     1.89985E-6                                        9.89022E-5
1.06800E3                5.17500E2                5.17500E2                9.99905E-1                                     2.18582E-6                                        9.29459E-5
1.06800E3                5.17750E2                5.17750E2                9.99894E-1                                     2.91686E-6                                        1.03249E-4
1.06800E3                5.18000E2                5.18000E2                9.99842E-1                                     4.98516E-6                                        1.52530E-4
1.06800E3                5.18250E2                5.18250E2                9.99495E-1                                     1.60304E-5                                        4.88542E-4
1.06800E3                5.18500E2                5.18500E2                9.66402E-1                                     8.50149E-4                                        3.27477E-2
1.06800E3                5.18750E2                5.18750E2                9.99684E-1                                     5.33885E-6                                        3.10955E-4
1.06800E3                5.19000E2                5.19000E2                9.99900E-1                                     1.10607E-6                                        9.84679E-5
1.06800E3                5.19250E2                5.19250E2                9.99946E-1                                     4.34711E-7                                        5.33331E-5
1.06800E3                5.19500E2                5.19500E2                9.99962E-1                                     2.39995E-7                                        3.79664E-5
1.06800E3                5.19750E2                5.19750E2                9.99966E-1                                     1.56174E-7                                        3.42755E-5
1.06800E3                5.20000E2                5.20000E2                9.99962E-1                                     1.08460E-7                                        3.79739E-5
1.06800E3                5.20250E2                5.20250E2                9.99952E-1                                     7.22962E-8                                        4.80255E-5
1.06800E3                5.20500E2                5.20500E2                9.99936E-1                                     4.49589E-8                                        6.35450E-5
1.06800E3                5.20750E2                5.20750E2                9.99917E-1                                     2.71206E-8                                        8.30827E-5
1.06800E3                5.21000E2                5.21000E2                9.99895E-1                                     1.51646E-8                                        1.04883E-4
1.06800E3                5.21250E2                5.21250E2                9.99874E-1                                     7.70984E-9                                        1.26447E-4
1.06800E3                5.21500E2                5.21500E2                9.99856E-1                                     5.50279E-9                                        1.44048E-4
1.06800E3                5.21750E2                5.21750E2                9.99844E-1                                     6.16796E-9                                        1.55751E-4
1.06800E3                5.22000E2                5.22000E2                9.99840E-1                                     8.77109E-9                                        1.60069E-4
1.06800E3                5.22250E2                5.22250E2                9.99843E-1                                     1.21464E-8                                        1.57254E-4
1.06800E3                5.22500E2                5.22500E2                9.99851E-1                                     1.60467E-8                                        1.48745E-4
1.06800E3                5.22750E2                5.22750E2                9.99864E-1                                     2.16187E-8                                        1.36430E-4
1.06800E3                5.23000E2                5.23000E2                9.99878E-1                                     3.10863E-8                                        1.22038E-4
1.06800E3                5.23250E2                5.23250E2                9.99893E-1                                     4.70819E-8                                        1.06924E-4
1.06800E3                5.23500E2                5.23500E2                9.99908E-1                                     7.19904E-8                                        9.21694E-5
1.06800E3                5.23750E2                5.23750E2                9.99921E-1                                     1.07225E-7                                        7.88776E-5
1.06800E3                5.24000E2                5.24000E2                9.99931E-1                                     1.52460E-7                                        6.87204E-5
1.06800E3                5.24250E2                5.24250E2                9.99934E-1                                     2.05360E-7                                        6.55933E-5
1.06800E3                5.24500E2                5.24500E2                9.99915E-1                                     2.62173E-7                                        8.45121E-5
1.06800E3                5.24750E2                5.24750E2                9.99745E-1                                     3.87395E-7                                        2.54915E-4
1.06800E3                5.25000E2                5.25000E2                9.99280E-1                                     3.71585E-6                                        7.15828E-4
1.06800E3                5.25250E2                5.25250E2                9.99869E-1                                     4.33993E-6                                        1.26948E-4
1.06800E3                5.25500E2                5.25500E2                9.99868E-1                                     1.07586E-5                                        1.21710E-4
1.06800E3                5.25750E2                5.25750E2                9.99247E-1                                     6.85632E-5                                        6.84271E-4
1.06800E3                5.26000E2                5.26000E2                9.92187E-1                                     4.59667E-4                                        7.35363E-3
1.06800E3                5.26250E2                5.26250E2                9.99044E-1                                     2.16849E-5                                        9.34683E-4
1.06800E3                5.26500E2                5.26500E2                9.88639E-1                                     4.79734E-4                                        1.08813E-2
1.06800E3                5.26750E2                5.26750E2                9.99728E-1                                     1.27386E-5                                        2.58794E-4
1.06800E3                5.27000E2                5.27000E2                9.99775E-1                                     6.49278E-6                                        2.18887E-4
1.06800E3                5.27250E2                5.27250E2                9.99798E-1                                     4.41214E-6                                        1.97469E-4
1.06800E3                5.27500E2                5.27500E2                9.99821E-1                                     3.43274E-6                                        1.75782E-4
1.06800E3                5.27750E2                5.27750E2                9.99844E-1                                     2.91546E-6                                        1.52918E-4
1.06800E3                5.28000E2                5.28000E2                9.99867E-1                                     2.63294E-6                                        1.29884E-4
1.06800E3                5.28250E2                5.28250E2                9.99890E-1                                     2.48793E-6                                        1.07682E-4
1.06800E3                5.28500E2                5.28500E2                9.99911E-1                                     2.43967E-6                                        8.68837E-5
1.06800E3                5.28750E2                5.28750E2                9.99930E-1                                     2.47590E-6                                        6.77556E-5
1.06800E3                5.29000E2                5.29000E2                9.99947E-1                                     2.59989E-6                                        5.06124E-5
1.06800E3                5.29250E2                5.29250E2                9.99961E-1                                     2.82442E-6                                        3.61171E-5
1.06800E3                5.29500E2                5.29500E2                9.99971E-1                                     3.13012E-6                                        2.54995E-5
1.06800E3                5.29750E2                5.29750E2                9.99976E-1                                     3.62615E-6                                        2.01755E-5
1.06800E3                5.30000E2                5.30000E2                9.99974E-1                                     4.35207E-6                                        2.18424E-5
1.06900E3                5.00000E2                5.00000E2                9.99875E-1                                     6.13580E-6                                        1.18694E-4
1.06900E3                5.00250E2                5.00250E2                9.99835E-1                                     8.87243E-6                                        1.56596E-4
1.06900E3                5.00500E2                5.00500E2                9.99770E-1                                     1.32548E-5                                        2.16640E-4
1.06900E3                5.00750E2                5.00750E2                9.99772E-1                                     1.91499E-5                                        2.09001E-4
1.06900E3                5.01000E2                5.01000E2                9.99777E-1                                     3.50728E-5                                        1.87848E-4
1.06900E3                5.01250E2                5.01250E2                9.99653E-1                                     1.05686E-4                                        2.40954E-4
1.06900E3                5.01500E2                5.01500E2                9.94870E-1                                     2.44490E-3                                        2.68505E-3
1.06900E3                5.01750E2                5.01750E2                9.99356E-1                                     2.74128E-4                                        3.69536E-4
1.06900E3                5.02000E2                5.02000E2                9.99815E-1                                     4.88458E-5                                        1.35692E-4
1.06900E3                5.02250E2                5.02250E2                9.99879E-1                                     1.95314E-5                                        1.01313E-4
1.06900E3                5.02500E2                5.02500E2                9.99900E-1                                     1.06809E-5                                        8.89613E-5
1.06900E3                5.02750E2                5.02750E2                9.99908E-1                                     7.21962E-6                                        8.51652E-5
1.06900E3                5.03000E2                5.03000E2                9.99899E-1                                     6.35215E-6                                        9.49228E-5
1.06900E3                5.03250E2                5.03250E2                9.99758E-1                                     1.21842E-5                                        2.30174E-4
1.06900E3                5.03500E2                5.03500E2                9.99502E-1                                     6.58978E-6                                        4.91085E-4
1.06900E3                5.03750E2                5.03750E2                9.99912E-1                                     3.33983E-8                                        8.80090E-5
1.06900E3                5.04000E2                5.04000E2                9.99932E-1                                     2.00759E-8                                        6.79179E-5
1.06900E3                5.04250E2                5.04250E2                9.99937E-1                                     2.53727E-8                                        6.28582E-5
1.06900E3                5.04500E2                5.04500E2                9.99942E-1                                     3.05741E-8                                        5.81678E-5
1.06900E3                5.04750E2                5.04750E2                9.99940E-1                                     7.18455E-8                                        6.00302E-5
1.06900E3                5.05000E2                5.05000E2                9.99937E-1                                     1.98291E-7                                        6.32043E-5
1.06900E3                5.05250E2                5.05250E2                9.99933E-1                                     5.15966E-7                                        6.67077E-5
1.06900E3                5.05500E2                5.05500E2                9.99926E-1                                     1.35739E-6                                        7.26483E-5
1.06900E3                5.05750E2                5.05750E2                9.99904E-1                                     4.16157E-6                                        9.17533E-5
1.06900E3                5.06000E2                5.06000E2                9.99767E-1                                     2.11789E-5                                        2.11717E-4
1.06900E3                5.06250E2                5.06250E2                8.91373E-1                                     2.60699E-2                                        8.25569E-2
1.06900E3                5.06500E2                5.06500E2                9.99156E-1                                     3.62716E-5                                        8.07697E-4
1.06900E3                5.06750E2                5.06750E2                9.99741E-1                                     1.07376E-5                                        2.48024E-4
1.06900E3                5.07000E2                5.07000E2                9.99840E-1                                     5.65684E-6                                        1.54339E-4
1.06900E3                5.07250E2                5.07250E2                9.99877E-1                                     3.76220E-6                                        1.18865E-4
1.06900E3                5.07500E2                5.07500E2                9.99893E-1                                     2.86824E-6                                        1.04157E-4
1.06900E3                5.07750E2                5.07750E2                9.99888E-1                                     2.45465E-6                                        1.09950E-4
1.06900E3                5.08000E2                5.08000E2                9.99821E-1                                     2.46823E-6                                        1.76634E-4
1.06900E3                5.08250E2                5.08250E2                9.99442E-1                                     3.09973E-6                                        5.54817E-4
1.06900E3                5.08500E2                5.08500E2                9.99510E-1                                     1.33441E-6                                        4.88395E-4
1.06900E3                5.08750E2                5.08750E2                9.99811E-1                                     6.78653E-7                                        1.88526E-4
1.06900E3                5.09000E2                5.09000E2                9.99893E-1                                     5.59815E-7                                        1.06354E-4
1.06900E3                5.09250E2                5.09250E2                9.99925E-1                                     4.96514E-7                                        7.44386E-5
1.06900E3                5.09500E2                5.09500E2                9.99940E-1                                     4.45746E-7                                        5.92355E-5
1.06900E3                5.09750E2                5.09750E2                9.99948E-1                                     4.02035E-7                                        5.19058E-5
1.06900E3                5.10000E2                5.10000E2                9.99950E-1                                     3.64427E-7                                        4.92175E-5
1.06900E3                5.10250E2                5.10250E2                9.99950E-1                                     3.32573E-7                                        4.95116E-5
1.06900E3                5.10500E2                5.10500E2                9.99948E-1                                     3.06099E-7                                        5.15863E-5
1.06900E3                5.10750E2                5.10750E2                9.99945E-1                                     2.84466E-7                                        5.43745E-5
1.06900E3                5.11000E2                5.11000E2                9.99943E-1                                     2.67174E-7                                        5.68955E-5
1.06900E3                5.11250E2                5.11250E2                9.99941E-1                                     2.51847E-7                                        5.85320E-5
1.06900E3                5.11500E2                5.11500E2                9.99941E-1                                     2.40015E-7                                        5.85577E-5
1.06900E3                5.11750E2                5.11750E2                9.99943E-1                                     2.30163E-7                                        5.69976E-5
1.06900E3                5.12000E2                5.12000E2                9.99946E-1                                     2.22778E-7                                        5.41329E-5
1.06900E3                5.12250E2                5.12250E2                9.99949E-1                                     2.23638E-7                                        5.08439E-5
1.06900E3                5.12500E2                5.12500E2                9.99956E-1                                     2.58988E-7                                        4.33160E-5
1.06900E3                5.12750E2                5.12750E2                9.99961E-1                                     2.64872E-7                                        3.82873E-5
1.06900E3                5.13000E2                5.13000E2                9.99965E-1                                     3.04655E-7                                        3.48799E-5
1.06900E3                5.13250E2                5.13250E2                9.99966E-1                                     4.00704E-7                                        3.33889E-5
1.06900E3                5.13500E2                5.13500E2                9.99964E-1                                     6.30492E-7                                        3.57518E-5
1.06900E3                5.13750E2                5.13750E2                9.99951E-1                                     1.28088E-6                                        4.76445E-5
1.06900E3                5.14000E2                5.14000E2                9.99898E-1                                     4.00408E-6                                        9.76839E-5
1.06900E3                5.14250E2                5.14250E2                9.99207E-1                                     4.52001E-5                                        7.47597E-4
1.06900E3                5.14500E2                5.14500E2                9.99386E-1                                     4.50316E-5                                        5.69262E-4
1.06900E3                5.14750E2                5.14750E2                9.99906E-1                                     6.56185E-6                                        8.77548E-5
1.06900E3                5.15000E2                5.15000E2                9.99936E-1                                     2.95521E-6                                        6.14995E-5
1.06900E3                5.15250E2                5.15250E2                9.99927E-1                                     1.88213E-6                                        7.15352E-5
1.06900E3                5.15500E2                5.15500E2                9.99897E-1                                     1.47571E-6                                        1.01651E-4
1.06900E3                5.15750E2                5.15750E2                9.99799E-1                                     1.70537E-6                                        1.99686E-4
1.06900E3                5.16000E2                5.16000E2                9.92335E-1                                     3.71412E-5                                        7.62810E-3
1.06900E3                5.16250E2                5.16250E2                9.98574E-1                                     2.47725E-6                                        1.42329E-3
1.06900E3                5.16500E2                5.16500E2                9.96103E-1                                     1.93028E-6                                        3.89475E-3
1.06900E3                5.16750E2                5.16750E2                9.98607E-1                                     3.12350E-6                                        1.38994E-3
1.06900E3                5.17000E2                5.17000E2                9.99767E-1                                     1.88828E-6                                        2.31239E-4
1.06900E3                5.17250E2                5.17250E2                9.99880E-1                                     1.69455E-6                                        1.18419E-4
1.06900E3                5.17500E2                5.17500E2                9.99902E-1                                     1.77311E-6                                        9.57817E-5
1.06900E3                5.17750E2                5.17750E2                9.99903E-1                                     2.09856E-6                                        9.50845E-5
1.06900E3                5.18000E2                5.18000E2                9.99882E-1                                     2.92429E-6                                        1.15373E-4
1.06900E3                5.18250E2                5.18250E2                9.99784E-1                                     5.60364E-6                                        2.10771E-4
1.06900E3                5.18500E2                5.18500E2                9.98644E-1                                     3.09908E-5                                        1.32523E-3
1.06900E3                5.18750E2                5.18750E2                9.98064E-1                                     3.28834E-5                                        1.90276E-3
1.06900E3                5.19000E2                5.19000E2                9.99801E-1                                     2.40428E-6                                        1.97041E-4
1.06900E3                5.19250E2                5.19250E2                9.99921E-1                                     7.20641E-7                                        7.82539E-5
1.06900E3                5.19500E2                5.19500E2                9.99952E-1                                     3.43591E-7                                        4.76510E-5
1.06900E3                5.19750E2                5.19750E2                9.99961E-1                                     2.00637E-7                                        3.89273E-5
1.06900E3                5.20000E2                5.20000E2                9.99959E-1                                     1.25331E-7                                        4.06013E-5
1.06900E3                5.20250E2                5.20250E2                9.99950E-1                                     7.85341E-8                                        4.94545E-5