% Model:              cluster_pvk_0_TM_desp_0_SOLVED.mph
% Version:            COMSOL 6.2.0.658
% Date:               Dec 9 2025, 18:51
% Table:              Accumulated Probe Table 13 - 
% h_fib (nm)             lda0 (nm)                lambda0 (nm)             Reflection port 1 (1), Global Variable Probe 1 Transmittance port 2 (1), Global Variable Probe 2 Absorptance total (1), Global Variable Probe 3
1.06800E3                5.10750E2                5.10750E2                9.48554E-1                                     2.46304E-6                                        5.14431E-2
1.06800E3                5.11000E2                5.11000E2                9.56879E-1                                     2.29603E-5                                        4.30977E-2
1.06800E3                5.11250E2                5.11250E2                9.24635E-1                                     7.15368E-5                                        7.52932E-2
1.06800E3                5.11500E2                5.11500E2                9.40830E-1                                     1.37074E-5                                        5.91559E-2
1.06800E3                5.11750E2                5.11750E2                9.43948E-1                                     8.05744E-6                                        5.60440E-2
1.06800E3                5.12000E2                5.12000E2                9.36855E-1                                     8.12231E-6                                        6.31365E-2
1.06800E3                5.12250E2                5.12250E2                8.92555E-1                                     3.95914E-5                                        1.07406E-1
1.06800E3                5.12500E2                5.12500E2                9.17498E-1                                     6.39797E-6                                        8.24961E-2
1.06800E3                5.12750E2                5.12750E2                9.46942E-1                                     1.19167E-5                                        5.30463E-2
1.06800E3                5.13000E2                5.13000E2                9.57457E-1                                     1.07838E-5                                        4.25322E-2
1.06800E3                5.13250E2                5.13250E2                9.61440E-1                                     8.88820E-6                                        3.85511E-2
1.06800E3                5.13500E2                5.13500E2                9.62122E-1                                     7.06268E-6                                        3.78711E-2
1.06800E3                5.13750E2                5.13750E2                9.60851E-1                                     5.44917E-6                                        3.91436E-2
1.06800E3                5.14000E2                5.14000E2                9.58499E-1                                     4.09679E-6                                        4.14969E-2
1.06800E3                5.14250E2                5.14250E2                9.55730E-1                                     3.02369E-6                                        4.42671E-2
1.06800E3                5.14500E2                5.14500E2                9.53446E-1                                     1.95561E-6                                        4.65521E-2
1.06800E3                5.14750E2                5.14750E2                9.51135E-1                                     1.46120E-6                                        4.88633E-2
1.06800E3                5.15000E2                5.15000E2                9.49665E-1                                     1.01756E-6                                        5.03335E-2
1.06800E3                5.15250E2                5.15250E2                9.48727E-1                                     7.10691E-7                                        5.12720E-2
1.06800E3                5.15500E2                5.15500E2                9.47946E-1                                     5.40019E-7                                        5.20539E-2
1.06800E3                5.15750E2                5.15750E2                9.46781E-1                                     7.37426E-7                                        5.32185E-2
1.06800E3                5.16000E2                5.16000E2                9.44141E-1                                     4.31780E-7                                        5.58589E-2
1.06800E3                5.16250E2                5.16250E2                9.42214E-1                                     1.47616E-7                                        5.77863E-2
1.06800E3                5.16500E2                5.16500E2                9.39931E-1                                     1.45791E-7                                        6.00684E-2
1.06800E3                5.16750E2                5.16750E2                9.37659E-1                                     1.70551E-7                                        6.23410E-2
1.06800E3                5.17000E2                5.17000E2                9.36331E-1                                     1.76524E-7                                        6.36692E-2
1.06800E3                5.17250E2                5.17250E2                9.36710E-1                                     2.06194E-7                                        6.32900E-2
1.06800E3                5.17500E2                5.17500E2                9.39289E-1                                     2.60557E-7                                        6.07104E-2
1.06800E3                5.17750E2                5.17750E2                9.44127E-1                                     3.44039E-7                                        5.58722E-2
1.06800E3                5.18000E2                5.18000E2                9.50650E-1                                     4.58705E-7                                        4.93492E-2
1.06800E3                5.18250E2                5.18250E2                9.57705E-1                                     6.00140E-7                                        4.22943E-2
1.06800E3                5.18500E2                5.18500E2                9.63931E-1                                     7.58175E-7                                        3.60682E-2
1.06800E3                5.18750E2                5.18750E2                9.68270E-1                                     9.34119E-7                                        3.17286E-2
1.06800E3                5.19000E2                5.19000E2                9.70282E-1                                     1.11001E-6                                        2.97173E-2
1.06800E3                5.19250E2                5.19250E2                9.70161E-1                                     1.31095E-6                                        2.98373E-2
1.06800E3                5.19500E2                5.19500E2                9.68391E-1                                     1.47558E-6                                        3.16075E-2
1.06800E3                5.19750E2                5.19750E2                9.65074E-1                                     1.30235E-6                                        3.49243E-2
1.06800E3                5.20000E2                5.20000E2                9.55364E-1                                     1.07295E-5                                        4.46252E-2
1.06800E3                5.20250E2                5.20250E2                9.42999E-1                                     2.51736E-4                                        5.67489E-2
1.06800E3                5.20500E2                5.20500E2                9.61489E-1                                     2.42571E-5                                        3.84867E-2
1.06800E3                5.20750E2                5.20750E2                9.60037E-1                                     2.33327E-5                                        3.99394E-2
1.06800E3                5.21000E2                5.21000E2                9.53940E-1                                     5.66060E-5                                        4.60030E-2
1.06800E3                5.21250E2                5.21250E2                8.61781E-1                                     2.19065E-3                                        1.36028E-1
1.06800E3                5.21500E2                5.21500E2                9.50531E-1                                     6.85962E-5                                        4.94005E-2
1.06800E3                5.21750E2                5.21750E2                9.43274E-1                                     1.73479E-5                                        5.67083E-2
1.06800E3                5.22000E2                5.22000E2                9.36648E-1                                     1.15674E-5                                        6.33403E-2
1.06800E3                5.22250E2                5.22250E2                9.31822E-1                                     1.17341E-5                                        6.81659E-2
1.06800E3                5.22500E2                5.22500E2                9.29999E-1                                     1.38828E-5                                        6.99870E-2
1.06800E3                5.22750E2                5.22750E2                9.32107E-1                                     1.66882E-5                                        6.78765E-2
1.06800E3                5.23000E2                5.23000E2                9.38120E-1                                     1.90840E-5                                        6.18608E-2
1.06800E3                5.23250E2                5.23250E2                9.46734E-1                                     2.02011E-5                                        5.32454E-2
1.06800E3                5.23500E2                5.23500E2                9.55879E-1                                     1.96785E-5                                        4.41017E-2
1.06800E3                5.23750E2                5.23750E2                9.63733E-1                                     1.77240E-5                                        3.62489E-2
1.06800E3                5.24000E2                5.24000E2                9.69411E-1                                     1.48380E-5                                        3.05737E-2
1.06800E3                5.24250E2                5.24250E2                9.73011E-1                                     1.14885E-5                                        2.69780E-2
1.06800E3                5.24500E2                5.24500E2                9.75330E-1                                     8.17491E-6                                        2.46616E-2
1.06800E3                5.24750E2                5.24750E2                9.76071E-1                                     5.47163E-6                                        2.39234E-2
1.06800E3                5.25000E2                5.25000E2                9.76295E-1                                     2.33206E-6                                        2.37023E-2
1.06800E3                5.25250E2                5.25250E2                7.96980E-1                                     1.41593E-3                                        2.01604E-1
1.06800E3                5.25500E2                5.25500E2                9.75006E-1                                     9.01386E-6                                        2.49846E-2
1.06800E3                5.25750E2                5.25750E2                9.70581E-1                                     8.79353E-6                                        2.94099E-2
1.06800E3                5.26000E2                5.26000E2                9.59383E-1                                     1.16922E-5                                        4.06048E-2
1.06800E3                5.26250E2                5.26250E2                9.53929E-1                                     1.73776E-5                                        4.60532E-2
1.06800E3                5.26500E2                5.26500E2                9.41445E-1                                     2.17437E-5                                        5.85331E-2
1.06800E3                5.26750E2                5.26750E2                9.27656E-1                                     2.75212E-5                                        7.23169E-2
1.06800E3                5.27000E2                5.27000E2                9.15980E-1                                     3.22700E-5                                        8.39876E-2
1.06800E3                5.27250E2                5.27250E2                9.06704E-1                                     3.54485E-5                                        9.32602E-2
1.06800E3                5.27500E2                5.27500E2                9.01062E-1                                     3.57736E-5                                        9.89023E-2
1.06800E3                5.27750E2                5.27750E2                9.00571E-1                                     3.19136E-5                                        9.93975E-2
1.06800E3                5.28000E2                5.28000E2                9.06483E-1                                     2.36004E-5                                        9.34930E-2
1.06800E3                5.28250E2                5.28250E2                9.18142E-1                                     1.41830E-5                                        8.18438E-2
1.06800E3                5.28500E2                5.28500E2                9.30284E-1                                     1.56947E-5                                        6.97005E-2
1.06800E3                5.28750E2                5.28750E2                9.27815E-1                                     6.92544E-5                                        7.21159E-2
1.06800E3                5.29000E2                5.29000E2                8.76443E-1                                     3.09338E-4                                        1.23248E-1
1.06800E3                5.29250E2                5.29250E2                9.20551E-1                                     2.17875E-4                                        7.92315E-2
1.06800E3                5.29500E2                5.29500E2                9.63147E-1                                     7.15775E-5                                        3.67819E-2
1.06800E3                5.29750E2                5.29750E2                9.74550E-1                                     2.96392E-5                                        2.54202E-2
1.06800E3                5.30000E2                5.30000E2                9.77043E-1                                     1.48746E-5                                        2.29419E-2
1.06900E3                5.00000E2                5.00000E2                9.54074E-1                                     1.45911E-6                                        4.59242E-2
1.06900E3                5.00250E2                5.00250E2                9.55567E-1                                     1.06918E-6                                        4.44324E-2
1.06900E3                5.00500E2                5.00500E2                9.57204E-1                                     3.12307E-7                                        4.27953E-2
1.06900E3                5.00750E2                5.00750E2                9.56767E-1                                     1.31729E-4                                        4.31009E-2
1.06900E3                5.01000E2                5.01000E2                9.62113E-1                                     1.49599E-5                                        3.78724E-2
1.06900E3                5.01250E2                5.01250E2                9.63995E-1                                     1.16898E-5                                        3.59932E-2
1.06900E3                5.01500E2                5.01500E2                9.65009E-1                                     1.26136E-5                                        3.49789E-2
1.06900E3                5.01750E2                5.01750E2                9.64584E-1                                     1.79703E-5                                        3.53979E-2
1.06900E3                5.02000E2                5.02000E2                9.56945E-1                                     2.43204E-5                                        4.30303E-2
1.06900E3                5.02250E2                5.02250E2                9.61615E-1                                     6.54427E-6                                        3.83783E-2
1.06900E3                5.02500E2                5.02500E2                9.59516E-1                                     6.48183E-6                                        4.04774E-2
1.06900E3                5.02750E2                5.02750E2                9.56575E-1                                     6.02738E-6                                        4.34189E-2
1.06900E3                5.03000E2                5.03000E2                9.53360E-1                                     5.22026E-6                                        4.66352E-2
1.06900E3                5.03250E2                5.03250E2                9.50178E-1                                     4.21827E-6                                        4.98175E-2
1.06900E3                5.03500E2                5.03500E2                9.47264E-1                                     3.17178E-6                                        5.27326E-2
1.06900E3                5.03750E2                5.03750E2                9.44950E-1                                     2.27298E-6                                        5.50476E-2
1.06900E3                5.04000E2                5.04000E2                9.43061E-1                                     2.10567E-6                                        5.69372E-2
1.06900E3                5.04250E2                5.04250E2                9.41414E-1                                     5.08878E-6                                        5.85805E-2
1.06900E3                5.04500E2                5.04500E2                9.33346E-1                                     2.69615E-5                                        6.66266E-2
1.06900E3                5.04750E2                5.04750E2                9.15224E-1                                     4.71328E-5                                        8.47292E-2
1.06900E3                5.05000E2                5.05000E2                9.23050E-1                                     2.24839E-5                                        7.69272E-2
1.06900E3                5.05250E2                5.05250E2                9.27716E-1                                     1.37362E-5                                        7.22707E-2
1.06900E3                5.05500E2                5.05500E2                9.30577E-1                                     1.04480E-5                                        6.94123E-2
1.06900E3                5.05750E2                5.05750E2                9.33113E-1                                     8.99734E-6                                        6.68777E-2
1.06900E3                5.06000E2                5.06000E2                9.35889E-1                                     8.30991E-6                                        6.41023E-2
1.06900E3                5.06250E2                5.06250E2                9.39155E-1                                     7.97749E-6                                        6.08374E-2
1.06900E3                5.06500E2                5.06500E2                9.42900E-1                                     7.39367E-6                                        5.70930E-2
1.06900E3                5.06750E2                5.06750E2                9.46725E-1                                     7.98534E-6                                        5.32672E-2
1.06900E3                5.07000E2                5.07000E2                9.50992E-1                                     8.21734E-6                                        4.90001E-2
1.06900E3                5.07250E2                5.07250E2                9.54702E-1                                     8.41374E-6                                        4.52891E-2
1.06900E3                5.07500E2                5.07500E2                9.57510E-1                                     8.56798E-6                                        4.24814E-2
1.06900E3                5.07750E2                5.07750E2                9.59150E-1                                     8.64456E-6                                        4.08412E-2
1.06900E3                5.08000E2                5.08000E2                9.59565E-1                                     8.69701E-6                                        4.04263E-2
1.06900E3                5.08250E2                5.08250E2                9.58892E-1                                     9.20975E-6                                        4.10988E-2
1.06900E3                5.08500E2                5.08500E2                9.57854E-1                                     1.14110E-5                                        4.21342E-2
1.06900E3                5.08750E2                5.08750E2                9.56825E-1                                     1.38888E-5                                        4.31606E-2
1.06900E3                5.09000E2                5.09000E2                9.52640E-1                                     2.11665E-4                                        4.71481E-2
1.06900E3                5.09250E2                5.09250E2                9.46197E-1                                     1.16919E-5                                        5.37917E-2
1.06900E3                5.09500E2                5.09500E2                9.46374E-1                                     5.08661E-6                                        5.36212E-2
1.06900E3                5.09750E2                5.09750E2                9.45399E-1                                     3.57035E-6                                        5.45971E-2
1.06900E3                5.10000E2                5.10000E2                9.44749E-1                                     2.70504E-6                                        5.52480E-2
1.06900E3                5.10250E2                5.10250E2                9.44688E-1                                     2.12317E-6                                        5.53098E-2
1.06900E3                5.10500E2                5.10500E2                9.45352E-1                                     1.79829E-6                                        5.46462E-2
1.06900E3                5.10750E2                5.10750E2                9.47060E-1                                     1.98896E-6                                        5.29381E-2
1.06900E3                5.11000E2                5.11000E2                9.51152E-1                                     5.42585E-6                                        4.88423E-2
1.06900E3                5.11250E2                5.11250E2                9.61241E-1                                     2.09962E-4                                        3.85487E-2
1.06900E3                5.11500E2                5.11500E2                9.35153E-1                                     3.11607E-5                                        6.48154E-2
1.06900E3                5.11750E2                5.11750E2                9.43423E-1                                     1.13516E-5                                        5.65660E-2
1.06900E3                5.12000E2                5.12000E2                9.43909E-1                                     7.15069E-6                                        5.60838E-2
1.06900E3                5.12250E2                5.12250E2                9.25697E-1                                     9.51806E-6                                        7.42934E-2
1.06900E3                5.12500E2                5.12500E2                8.88376E-1                                     7.98612E-5                                        1.11544E-1
1.06900E3                5.12750E2                5.12750E2                9.36739E-1                                     7.03278E-6                                        6.32536E-2
1.06900E3                5.13000E2                5.13000E2                9.55023E-1                                     1.03122E-5                                        4.49664E-2
1.06900E3                5.13250E2                5.13250E2                9.60822E-1                                     8.77642E-6                                        3.91694E-2
1.06900E3                5.13500E2                5.13500E2                9.62005E-1                                     6.98664E-6                                        3.79879E-2
1.06900E3                5.13750E2                5.13750E2                9.60885E-1                                     5.38650E-6                                        3.91097E-2
1.06900E3                5.14000E2                5.14000E2                9.58584E-1                                     4.05098E-6                                        4.14119E-2
1.06900E3                5.14250E2                5.14250E2                9.55856E-1                                     2.98446E-6                                        4.41412E-2
1.06900E3                5.14500E2                5.14500E2                9.53381E-1                                     2.15856E-6                                        4.66167E-2
1.06900E3                5.14750E2                5.14750E2                9.51151E-1                                     1.45206E-6                                        4.88477E-2
1.06900E3                5.15000E2                5.15000E2                9.49664E-1                                     1.02873E-6                                        5.03350E-2
1.06900E3                5.15250E2                5.15250E2                9.48706E-1                                     7.18179E-7                                        5.12932E-2
1.06900E3                5.15500E2                5.15500E2                9.47886E-1                                     5.23852E-7                                        5.21130E-2
1.06900E3                5.15750E2                5.15750E2                9.46741E-1                                     4.80026E-7                                        5.32586E-2
1.06900E3                5.16000E2                5.16000E2                9.44041E-1                                     1.18834E-6                                        5.59577E-2
1.06900E3                5.16250E2                5.16250E2                9.42189E-1                                     2.34072E-7                                        5.78111E-2
1.06900E3                5.16500E2                5.16500E2                9.39795E-1                                     1.12849E-7                                        6.02049E-2
1.06900E3                5.16750E2                5.16750E2                9.37660E-1                                     1.78835E-7                                        6.23400E-2
1.06900E3                5.17000E2                5.17000E2                9.36253E-1                                     1.88109E-7                                        6.37472E-2
1.06900E3                5.17250E2                5.17250E2                9.36569E-1                                     2.21510E-7                                        6.34304E-2
1.06900E3                5.17500E2                5.17500E2                9.39110E-1                                     2.84217E-7                                        6.08897E-2
1.06900E3                5.17750E2                5.17750E2                9.43952E-1                                     3.81133E-7                                        5.60473E-2
1.06900E3                5.18000E2                5.18000E2                9.50520E-1                                     5.13569E-7                                        4.94792E-2
1.06900E3                5.18250E2                5.18250E2                9.57637E-1                                     6.73669E-7                                        4.23621E-2
1.06900E3                5.18500E2                5.18500E2                9.63921E-1                                     8.46088E-7                                        3.60784E-2
1.06900E3                5.18750E2                5.18750E2                9.68312E-1                                     1.01870E-6                                        3.16870E-2
1.06900E3                5.19000E2                5.19000E2                9.70406E-1                                     1.20524E-6                                        2.95927E-2
1.06900E3                5.19250E2                5.19250E2                9.70419E-1                                     1.41422E-6                                        2.95799E-2
1.06900E3                5.19500E2                5.19500E2                9.68911E-1                                     1.65181E-6                                        3.10878E-2
1.06900E3                5.19750E2                5.19750E2                9.66334E-1                                     1.76658E-6                                        3.36646E-2
1.06900E3                5.20000E2                5.20000E2                9.62006E-1                                     1.39624E-6                                        3.79930E-2
1.06900E3                5.20250E2                5.20250E2                9.22449E-1                                     2.24289E-4                                        7.73270E-2