% Model:              cluster_pvk_2_TE_desp_0_SOLVED.mph
% Version:            COMSOL 6.2.0.658
% Date:               Dec 22 2025, 12:34
% Table:              Accumulated Probe Table 13 - 
% h_fib (nm)             lda0 (nm)                lambda0 (nm)             Reflection port 1 (1), Global Variable Probe 1 Transmittance port 2 (1), Global Variable Probe 2 Absorptance total (1), Global Variable Probe 3
1.08000E3                5.00000E2                5.00000E2                9.92255E-1                                     6.40405E-6                                        7.73897E-3
1.08000E3                5.00200E2                5.00200E2                9.91003E-1                                     7.55363E-6                                        8.98946E-3
1.08000E3                5.00400E2                5.00400E2                9.89524E-1                                     8.81197E-6                                        1.04673E-2
1.08000E3                5.00600E2                5.00600E2                9.87924E-1                                     1.00294E-5                                        1.20658E-2
1.08000E3                5.00800E2                5.00800E2                9.86445E-1                                     1.09471E-5                                        1.35446E-2
1.08000E3                5.01000E2                5.01000E2                9.85432E-1                                     1.12629E-5                                        1.45571E-2
1.08000E3                5.01200E2                5.01200E2                9.85218E-1                                     1.07641E-5                                        1.47716E-2
1.08000E3                5.01400E2                5.01400E2                9.85736E-1                                     9.67669E-6                                        1.42541E-2
1.08000E3                5.01600E2                5.01600E2                9.86702E-1                                     8.36073E-6                                        1.32891E-2
1.08000E3                5.01800E2                5.01800E2                9.87782E-1                                     7.14212E-6                                        1.22110E-2
1.08000E3                5.02000E2                5.02000E2                9.88738E-1                                     6.20527E-6                                        1.12559E-2
1.08000E3                5.02200E2                5.02200E2                9.89456E-1                                     5.61000E-6                                        1.05385E-2
1.08000E3                5.02400E2                5.02400E2                9.89902E-1                                     5.35058E-6                                        1.00931E-2
1.08000E3                5.02600E2                5.02600E2                9.90078E-1                                     5.40026E-6                                        9.91709E-3
1.08000E3                5.02800E2                5.02800E2                9.89980E-1                                     5.74064E-6                                        1.00144E-2
1.08000E3                5.03000E2                5.03000E2                9.89651E-1                                     6.32793E-6                                        1.03431E-2
1.08000E3                5.03200E2                5.03200E2                9.89106E-1                                     7.14670E-6                                        1.08873E-2
1.08000E3                5.03400E2                5.03400E2                9.88359E-1                                     8.18608E-6                                        1.16324E-2
1.08000E3                5.03600E2                5.03600E2                9.87431E-1                                     9.43314E-6                                        1.25592E-2
1.08000E3                5.03800E2                5.03800E2                9.86352E-1                                     1.08652E-5                                        1.36369E-2
1.08000E3                5.04000E2                5.04000E2                9.85172E-1                                     1.24403E-5                                        1.48152E-2
1.08000E3                5.04200E2                5.04200E2                9.83969E-1                                     1.40871E-5                                        1.60169E-2
1.08000E3                5.04400E2                5.04400E2                9.82956E-1                                     1.55097E-5                                        1.70287E-2
1.08000E3                5.04600E2                5.04600E2                9.82161E-1                                     1.67349E-5                                        1.78222E-2
1.08000E3                5.04800E2                5.04800E2                9.81677E-1                                     1.76583E-5                                        1.83054E-2
1.08000E3                5.05000E2                5.05000E2                9.81560E-1                                     1.82063E-5                                        1.84217E-2
1.08000E3                5.05200E2                5.05200E2                9.81818E-1                                     1.83541E-5                                        1.81637E-2
1.08000E3                5.05400E2                5.05400E2                9.82409E-1                                     1.81276E-5                                        1.75726E-2
1.08000E3                5.05600E2                5.05600E2                9.83259E-1                                     1.75918E-5                                        1.67235E-2
1.08000E3                5.05800E2                5.05800E2                9.84278E-1                                     1.68253E-5                                        1.57049E-2
1.08000E3                5.06000E2                5.06000E2                9.85360E-1                                     1.58542E-5                                        1.46241E-2
1.08000E3                5.06200E2                5.06200E2                9.86431E-1                                     1.48615E-5                                        1.35539E-2
1.08000E3                5.06400E2                5.06400E2                9.87458E-1                                     1.38849E-5                                        1.25276E-2
1.08000E3                5.06600E2                5.06600E2                9.88422E-1                                     1.29488E-5                                        1.15649E-2
1.08000E3                5.06800E2                5.06800E2                9.89313E-1                                     1.20681E-5                                        1.06750E-2
1.08000E3                5.07000E2                5.07000E2                9.90128E-1                                     1.12507E-5                                        9.86065E-3
1.08000E3                5.07200E2                5.07200E2                9.90869E-1                                     1.04995E-5                                        9.12014E-3
1.08000E3                5.07400E2                5.07400E2                9.91530E-1                                     9.82385E-6                                        8.45973E-3
1.08000E3                5.07600E2                5.07600E2                9.92045E-1                                     9.28850E-6                                        7.94540E-3
1.08000E3                5.07800E2                5.07800E2                9.92514E-1                                     8.80345E-6                                        7.47751E-3
1.08000E3                5.08000E2                5.08000E2                9.92941E-1                                     8.36218E-6                                        7.05112E-3
1.08000E3                5.08200E2                5.08200E2                9.93330E-1                                     7.95773E-6                                        6.66181E-3
1.08000E3                5.08400E2                5.08400E2                9.93687E-1                                     7.58319E-6                                        6.30566E-3
1.08000E3                5.08600E2                5.08600E2                9.94014E-1                                     7.23266E-6                                        5.97921E-3
1.08000E3                5.08800E2                5.08800E2                9.94314E-1                                     6.90187E-6                                        5.67943E-3
1.08000E3                5.09000E2                5.09000E2                9.94580E-1                                     6.60593E-6                                        5.41341E-3
1.08000E3                5.09200E2                5.09200E2                9.94772E-1                                     6.42269E-6                                        5.22111E-3
1.08000E3                5.09400E2                5.09400E2                9.94954E-1                                     6.24485E-6                                        5.03968E-3
1.08000E3                5.09600E2                5.09600E2                9.95126E-1                                     6.07388E-6                                        4.86828E-3
1.08000E3                5.09800E2                5.09800E2                9.95288E-1                                     5.91119E-6                                        4.70607E-3
1.08000E3                5.10000E2                5.10000E2                9.95442E-1                                     5.75797E-6                                        4.55223E-3
1.08000E3                5.10200E2                5.10200E2                9.95588E-1                                     5.61522E-6                                        4.40592E-3
1.08000E3                5.10400E2                5.10400E2                9.95728E-1                                     5.48366E-6                                        4.26626E-3
1.08000E3                5.10600E2                5.10600E2                9.95863E-1                                     5.38060E-6                                        4.13182E-3
1.08000E3                5.10800E2                5.10800E2                9.95998E-1                                     5.35419E-6                                        3.99667E-3
1.08000E3                5.11000E2                5.11000E2                9.96134E-1                                     5.33105E-6                                        3.86023E-3
1.08000E3                5.11200E2                5.11200E2                9.96272E-1                                     5.30964E-6                                        3.72226E-3
1.08000E3                5.11400E2                5.11400E2                9.96412E-1                                     5.28781E-6                                        3.58264E-3
1.08000E3                5.11600E2                5.11600E2                9.96553E-1                                     5.26367E-6                                        3.44146E-3
1.08000E3                5.11800E2                5.11800E2                9.96696E-1                                     5.23633E-6                                        3.29894E-3
1.08000E3                5.12000E2                5.12000E2                9.96839E-1                                     5.20611E-6                                        3.15542E-3
1.08000E3                5.12200E2                5.12200E2                9.96997E-1                                     5.16998E-6                                        2.99768E-3
1.08000E3                5.12400E2                5.12400E2                9.97200E-1                                     5.11500E-6                                        2.79487E-3
1.08000E3                5.12600E2                5.12600E2                9.97400E-1                                     5.05325E-6                                        2.59475E-3
1.08000E3                5.12800E2                5.12800E2                9.97596E-1                                     4.98563E-6                                        2.39886E-3
1.08000E3                5.13000E2                5.13000E2                9.97786E-1                                     4.91247E-6                                        2.20861E-3
1.08000E3                5.13200E2                5.13200E2                9.97970E-1                                     4.83357E-6                                        2.02519E-3
1.08000E3                5.13400E2                5.13400E2                9.98146E-1                                     4.74842E-6                                        1.84962E-3
1.08000E3                5.13600E2                5.13600E2                9.98313E-1                                     4.65640E-6                                        1.68268E-3
1.08000E3                5.13800E2                5.13800E2                9.98476E-1                                     4.54112E-6                                        1.51954E-3
1.08000E3                5.14000E2                5.14000E2                9.98639E-1                                     4.38266E-6                                        1.35638E-3
1.08000E3                5.14200E2                5.14200E2                9.98787E-1                                     4.22510E-6                                        1.20871E-3
1.08000E3                5.14400E2                5.14400E2                9.98920E-1                                     4.07112E-6                                        1.07587E-3
1.08000E3                5.14600E2                5.14600E2                9.99039E-1                                     3.92335E-6                                        9.57125E-4
1.08000E3                5.14800E2                5.14800E2                9.99145E-1                                     3.78348E-6                                        8.51660E-4
1.08000E3                5.15000E2                5.15000E2                9.99238E-1                                     3.65185E-6                                        7.58610E-4
1.08000E3                5.15200E2                5.15200E2                9.99319E-1                                     3.52778E-6                                        6.77013E-4
1.08000E3                5.15400E2                5.15400E2                9.99389E-1                                     3.40470E-6                                        6.07748E-4
1.08000E3                5.15600E2                5.15600E2                9.99445E-1                                     3.27772E-6                                        5.51854E-4
1.08000E3                5.15800E2                5.15800E2                9.99493E-1                                     3.15805E-6                                        5.03775E-4
1.08000E3                5.16000E2                5.16000E2                9.99535E-1                                     3.04426E-6                                        4.62041E-4
1.08000E3                5.16200E2                5.16200E2                9.99572E-1                                     2.93497E-6                                        4.25276E-4
1.08000E3                5.16400E2                5.16400E2                9.99605E-1                                     2.82874E-6                                        3.92306E-4
1.08000E3                5.16600E2                5.16600E2                9.99635E-1                                     2.72418E-6                                        3.62264E-4
1.08000E3                5.16800E2                5.16800E2                9.99663E-1                                     2.62030E-6                                        3.34609E-4
1.08000E3                5.17000E2                5.17000E2                9.99687E-1                                     2.51585E-6                                        3.10565E-4
1.08000E3                5.17200E2                5.17200E2                9.99707E-1                                     2.41134E-6                                        2.90148E-4
1.08000E3                5.17400E2                5.17400E2                9.99728E-1                                     2.31115E-6                                        2.69393E-4
1.08000E3                5.17600E2                5.17600E2                9.99751E-1                                     2.21786E-6                                        2.47137E-4
1.08000E3                5.17800E2                5.17800E2                9.99775E-1                                     2.13270E-6                                        2.23190E-4
1.08000E3                5.18000E2                5.18000E2                9.99799E-1                                     2.05505E-6                                        1.98710E-4
1.08000E3                5.18200E2                5.18200E2                9.99823E-1                                     1.98340E-6                                        1.75215E-4
1.08000E3                5.18400E2                5.18400E2                9.99844E-1                                     1.91641E-6                                        1.53715E-4
1.08000E3                5.18600E2                5.18600E2                9.99863E-1                                     1.85310E-6                                        1.35593E-4
1.08000E3                5.18800E2                5.18800E2                9.99877E-1                                     1.79272E-6                                        1.21355E-4
1.08000E3                5.19000E2                5.19000E2                9.99888E-1                                     1.73432E-6                                        1.09835E-4
1.08000E3                5.19200E2                5.19200E2                9.99897E-1                                     1.67710E-6                                        1.01292E-4
1.08000E3                5.19400E2                5.19400E2                9.99902E-1                                     1.62041E-6                                        9.61056E-5
1.08000E3                5.19600E2                5.19600E2                9.99904E-1                                     1.56391E-6                                        9.48060E-5
1.08000E3                5.19800E2                5.19800E2                9.99900E-1                                     1.50752E-6                                        9.82096E-5
1.08000E3                5.20000E2                5.20000E2                9.99891E-1                                     1.45102E-6                                        1.07671E-4
1.08100E3                5.00000E2                5.00000E2                9.93012E-1                                     5.63257E-6                                        6.98243E-3
1.08100E3                5.00200E2                5.00200E2                9.91965E-1                                     6.65248E-6                                        8.02823E-3
1.08100E3                5.00400E2                5.00400E2                9.90681E-1                                     7.81688E-6                                        9.31107E-3
1.08100E3                5.00600E2                5.00600E2                9.89199E-1                                     9.04335E-6                                        1.07922E-2
1.08100E3                5.00800E2                5.00800E2                9.87653E-1                                     1.01580E-5                                        1.23368E-2
1.08100E3                5.01000E2                5.01000E2                9.86306E-1                                     1.08947E-5                                        1.36826E-2
1.08100E3                5.01200E2                5.01200E2                9.85542E-1                                     1.09303E-5                                        1.44466E-2
1.08100E3                5.01400E2                5.01400E2                9.85512E-1                                     1.02749E-5                                        1.44779E-2
1.08100E3                5.01600E2                5.01600E2                9.86120E-1                                     9.15379E-6                                        1.38711E-2
1.08100E3                5.01800E2                5.01800E2                9.87078E-1                                     7.90783E-6                                        1.29142E-2
1.08100E3                5.02000E2                5.02000E2                9.88087E-1                                     6.81369E-6                                        1.19060E-2
1.08100E3                5.02200E2                5.02200E2                9.88950E-1                                     6.01333E-6                                        1.10437E-2
1.08100E3                5.02400E2                5.02400E2                9.89576E-1                                     5.54498E-6                                        1.04184E-2
1.08100E3                5.02600E2                5.02600E2                9.89939E-1                                     5.39646E-6                                        1.00555E-2
1.08100E3                5.02800E2                5.02800E2                9.90024E-1                                     5.55360E-6                                        9.97070E-3
1.08100E3                5.03000E2                5.03000E2                9.89870E-1                                     5.96531E-6                                        1.01238E-2
1.08100E3                5.03200E2                5.03200E2                9.89496E-1                                     6.61079E-6                                        1.04970E-2
1.08100E3                5.03400E2                5.03400E2                9.88917E-1                                     7.47714E-6                                        1.10757E-2
1.08100E3                5.03600E2                5.03600E2                9.88148E-1                                     8.55430E-6                                        1.18437E-2
1.08100E3                5.03800E2                5.03800E2                9.87212E-1                                     9.82889E-6                                        1.27786E-2
1.08100E3                5.04000E2                5.04000E2                9.86144E-1                                     1.12761E-5                                        1.38448E-2
1.08100E3                5.04200E2                5.04200E2                9.85001E-1                                     1.28492E-5                                        1.49857E-2
1.08100E3                5.04400E2                5.04400E2                9.83961E-1                                     1.43034E-5                                        1.60246E-2
1.08100E3                5.04600E2                5.04600E2                9.83056E-1                                     1.56573E-5                                        1.69285E-2
1.08100E3                5.04800E2                5.04800E2                9.82381E-1                                     1.68064E-5                                        1.76025E-2
1.08100E3                5.05000E2                5.05000E2                9.82013E-1                                     1.76567E-5                                        1.79696E-2
1.08100E3                5.05200E2                5.05200E2                9.81993E-1                                     1.81456E-5                                        1.79889E-2
1.08100E3                5.05400E2                5.05400E2                9.82317E-1                                     1.82552E-5                                        1.76648E-2
1.08100E3                5.05600E2                5.05600E2                9.82939E-1                                     1.80127E-5                                        1.70431E-2
1.08100E3                5.05800E2                5.05800E2                9.83787E-1                                     1.74720E-5                                        1.61952E-2
1.08100E3                5.06000E2                5.06000E2                9.84774E-1                                     1.66293E-5                                        1.52092E-2
1.08100E3                5.06200E2                5.06200E2                9.85794E-1                                     1.57064E-5                                        1.41903E-2
1.08100E3                5.06400E2                5.06400E2                9.86803E-1                                     1.47544E-5                                        1.31822E-2
1.08100E3                5.06600E2                5.06600E2                9.87772E-1                                     1.38108E-5                                        1.22142E-2
1.08100E3                5.06800E2                5.06800E2                9.88683E-1                                     1.29012E-5                                        1.13037E-2
1.08100E3                5.07000E2                5.07000E2                9.89528E-1                                     1.20419E-5                                        1.04595E-2
1.08100E3                5.07200E2                5.07200E2                9.90304E-1                                     1.12415E-5                                        9.68428E-3
1.08100E3                5.07400E2                5.07400E2                9.91002E-1                                     1.05132E-5                                        8.98753E-3
1.08100E3                5.07600E2                5.07600E2                9.91550E-1                                     9.92618E-6                                        8.43999E-3
1.08100E3                5.07800E2                5.07800E2                9.92050E-1                                     9.39061E-6                                        7.94074E-3
1.08100E3                5.08000E2                5.08000E2                9.92506E-1                                     8.90038E-6                                        7.48503E-3
1.08100E3                5.08200E2                5.08200E2                9.92923E-1                                     8.44906E-6                                        7.06850E-3
1.08100E3                5.08400E2                5.08400E2                9.93305E-1                                     8.03050E-6                                        6.68718E-3
1.08100E3                5.08600E2                5.08600E2                9.93655E-1                                     7.63949E-6                                        6.33752E-3
1.08100E3                5.08800E2                5.08800E2                9.93976E-1                                     7.27230E-6                                        6.01637E-3
1.08100E3                5.09000E2                5.09000E2                9.94261E-1                                     6.94563E-6                                        5.73168E-3
1.08100E3                5.09200E2                5.09200E2                9.94466E-1                                     6.74344E-6                                        5.52771E-3
1.08100E3                5.09400E2                5.09400E2                9.94658E-1                                     6.54941E-6                                        5.33535E-3
1.08100E3                5.09600E2                5.09600E2                9.94840E-1                                     6.36471E-6                                        5.15370E-3
1.08100E3                5.09800E2                5.09800E2                9.95012E-1                                     6.19043E-6                                        4.98188E-3
1.08100E3                5.10000E2                5.10000E2                9.95175E-1                                     6.02747E-6                                        4.81900E-3
1.08100E3                5.10200E2                5.10200E2                9.95330E-1                                     5.87652E-6                                        4.66417E-3
1.08100E3                5.10400E2                5.10400E2                9.95478E-1                                     5.73803E-6                                        4.51646E-3
1.08100E3                5.10600E2                5.10600E2                9.95619E-1                                     5.63087E-6                                        4.37522E-3
1.08100E3                5.10800E2                5.10800E2                9.95758E-1                                     5.60857E-6                                        4.23656E-3
1.08100E3                5.11000E2                5.11000E2                9.95898E-1                                     5.58946E-6                                        4.09631E-3
1.08100E3                5.11200E2                5.11200E2                9.96040E-1                                     5.57197E-6                                        3.95420E-3
1.08100E3                5.11400E2                5.11400E2                9.96184E-1                                     5.55419E-6                                        3.81012E-3
1.08100E3                5.11600E2                5.11600E2                9.96330E-1                                     5.53466E-6                                        3.66412E-3