% Model:              cluster_pvk_0_TE_desp_0_SOLVED.mph
% Version:            COMSOL 6.2.0.658
% Date:               Dec 19 2025, 02:57
% Table:              Accumulated Probe Table 13 - 
% h_fib (nm)             lda0 (nm)                lambda0 (nm)             Reflection port 1 (1), Global Variable Probe 1 Transmittance port 2 (1), Global Variable Probe 2 Absorptance total (1), Global Variable Probe 3
1.08000E3                5.00000E2                5.00000E2                9.99906E-1                                     6.59675E-6                                        8.70017E-5
1.08000E3                5.00200E2                5.00200E2                9.99903E-1                                     9.33466E-6                                        8.72737E-5
1.08000E3                5.00400E2                5.00400E2                9.99899E-1                                     1.39376E-5                                        8.73985E-5
1.08000E3                5.00600E2                5.00600E2                9.99889E-1                                     2.29105E-5                                        8.81180E-5
1.08000E3                5.00800E2                5.00800E2                9.99863E-1                                     4.52227E-5                                        9.18185E-5
1.08000E3                5.01000E2                5.01000E2                9.99748E-1                                     1.38299E-4                                        1.13630E-4
1.08000E3                5.01200E2                5.01200E2                9.94093E-1                                     4.61057E-3                                        1.29622E-3
1.08000E3                5.01400E2                5.01400E2                9.99652E-1                                     2.17045E-4                                        1.31173E-4
1.08000E3                5.01600E2                5.01600E2                9.99888E-1                                     3.35687E-5                                        7.82051E-5
1.08000E3                5.01800E2                5.01800E2                9.99922E-1                                     9.70664E-6                                        6.82859E-5
1.08000E3                5.02000E2                5.02000E2                9.99934E-1                                     3.09798E-6                                        6.31314E-5
1.08000E3                5.02200E2                5.02200E2                9.99940E-1                                     8.09959E-7                                        5.92976E-5
1.08000E3                5.02400E2                5.02400E2                9.99944E-1                                     9.26578E-8                                        5.60991E-5
1.08000E3                5.02600E2                5.02600E2                9.99947E-1                                     1.17833E-7                                        5.33781E-5
1.08000E3                5.02800E2                5.02800E2                9.99948E-1                                     6.00845E-7                                        5.11365E-5
1.08000E3                5.03000E2                5.03000E2                9.99949E-1                                     1.45528E-6                                        4.94437E-5
1.08000E3                5.03200E2                5.03200E2                9.99949E-1                                     2.69211E-6                                        4.84051E-5
1.08000E3                5.03400E2                5.03400E2                9.99947E-1                                     4.39678E-6                                        4.81447E-5
1.08000E3                5.03600E2                5.03600E2                9.99944E-1                                     6.74323E-6                                        4.87990E-5
1.08000E3                5.03800E2                5.03800E2                9.99939E-1                                     1.00396E-5                                        5.05061E-5
1.08000E3                5.04000E2                5.04000E2                9.99932E-1                                     1.48366E-5                                        5.34178E-5
1.08000E3                5.04200E2                5.04200E2                9.99920E-1                                     2.21662E-5                                        5.77256E-5
1.08000E3                5.04400E2                5.04400E2                9.99902E-1                                     3.41363E-5                                        6.37434E-5
1.08000E3                5.04600E2                5.04600E2                9.99872E-1                                     5.56405E-5                                        7.22317E-5
1.08000E3                5.04800E2                5.04800E2                9.99814E-1                                     1.00036E-4                                        8.59338E-5
1.08000E3                5.05000E2                5.05000E2                9.99671E-1                                     2.13273E-4                                        1.15389E-4
1.08000E3                5.05200E2                5.05200E2                9.99132E-1                                     6.50462E-4                                        2.17844E-4
1.08000E3                5.05400E2                5.05400E2                9.91167E-1                                     7.16135E-3                                        1.67161E-3
1.08000E3                5.05600E2                5.05600E2                9.93938E-1                                     4.91930E-3                                        1.14306E-3
1.08000E3                5.05800E2                5.05800E2                9.99121E-1                                     6.63108E-4                                        2.15583E-4
1.08000E3                5.06000E2                5.06000E2                9.99613E-1                                     2.57775E-4                                        1.28919E-4
1.08000E3                5.06200E2                5.06200E2                9.99757E-1                                     1.39358E-4                                        1.03292E-4
1.08000E3                5.06400E2                5.06400E2                9.99820E-1                                     8.86235E-5                                        9.12230E-5
1.08000E3                5.06600E2                5.06600E2                9.99854E-1                                     6.20542E-5                                        8.34796E-5
1.08000E3                5.06800E2                5.06800E2                9.99876E-1                                     4.62924E-5                                        7.73808E-5
1.08000E3                5.07000E2                5.07000E2                9.99892E-1                                     3.61550E-5                                        7.19477E-5
1.08000E3                5.07200E2                5.07200E2                9.99904E-1                                     2.92864E-5                                        6.67317E-5
1.08000E3                5.07400E2                5.07400E2                9.99914E-1                                     2.43568E-5                                        6.17501E-5
1.08000E3                5.07600E2                5.07600E2                9.99922E-1                                     2.06491E-5                                        5.70960E-5
1.08000E3                5.07800E2                5.07800E2                9.99929E-1                                     1.77813E-5                                        5.27738E-5
1.08000E3                5.08000E2                5.08000E2                9.99936E-1                                     1.55097E-5                                        4.88097E-5
1.08000E3                5.08200E2                5.08200E2                9.99941E-1                                     1.36694E-5                                        4.52717E-5
1.08000E3                5.08400E2                5.08400E2                9.99946E-1                                     1.21453E-5                                        4.22757E-5
1.08000E3                5.08600E2                5.08600E2                9.99949E-1                                     1.08542E-5                                        4.00057E-5
1.08000E3                5.08800E2                5.08800E2                9.99951E-1                                     9.73221E-6                                        3.87874E-5
1.08000E3                5.09000E2                5.09000E2                9.99952E-1                                     8.72927E-6                                        3.93545E-5
1.08000E3                5.09200E2                5.09200E2                9.99949E-1                                     7.86550E-6                                        4.32166E-5
1.08000E3                5.09400E2                5.09400E2                9.99945E-1                                     7.39715E-6                                        4.71490E-5
1.08000E3                5.09600E2                5.09600E2                9.99947E-1                                     7.01436E-6                                        4.61056E-5
1.08000E3                5.09800E2                5.09800E2                9.99947E-1                                     6.50976E-6                                        4.69059E-5
1.08000E3                5.10000E2                5.10000E2                9.99944E-1                                     6.01942E-6                                        4.98999E-5
1.08000E3                5.10200E2                5.10200E2                9.99940E-1                                     5.57677E-6                                        5.41369E-5
1.08000E3                5.10400E2                5.10400E2                9.99936E-1                                     5.18283E-6                                        5.89622E-5
1.08000E3                5.10600E2                5.10600E2                9.99931E-1                                     4.83361E-6                                        6.38339E-5
1.08000E3                5.10800E2                5.10800E2                9.99927E-1                                     4.52502E-6                                        6.82564E-5
1.08000E3                5.11000E2                5.11000E2                9.99924E-1                                     4.25370E-6                                        7.17962E-5
1.08000E3                5.11200E2                5.11200E2                9.99922E-1                                     4.01735E-6                                        7.41164E-5
1.08000E3                5.11400E2                5.11400E2                9.99921E-1                                     3.81445E-6                                        7.49920E-5
1.08000E3                5.11600E2                5.11600E2                9.99922E-1                                     3.60618E-6                                        7.43874E-5
1.08000E3                5.11800E2                5.11800E2                9.99924E-1                                     3.40614E-6                                        7.25351E-5
1.08000E3                5.12000E2                5.12000E2                9.99927E-1                                     3.24959E-6                                        6.94143E-5
1.08000E3                5.12200E2                5.12200E2                9.99932E-1                                     3.10979E-6                                        6.53157E-5
1.08000E3                5.12400E2                5.12400E2                9.99936E-1                                     2.98218E-6                                        6.05728E-5
1.08000E3                5.12600E2                5.12600E2                9.99942E-1                                     2.86504E-6                                        5.55587E-5
1.08000E3                5.12800E2                5.12800E2                9.99947E-1                                     2.75703E-6                                        5.07365E-5
1.08000E3                5.13000E2                5.13000E2                9.99950E-1                                     2.65796E-6                                        4.68436E-5
1.08000E3                5.13200E2                5.13200E2                9.99952E-1                                     2.57341E-6                                        4.56513E-5
1.08000E3                5.13400E2                5.13400E2                9.99943E-1                                     2.54286E-6                                        5.40964E-5
1.08000E3                5.13600E2                5.13600E2                9.99875E-1                                     2.93937E-6                                        1.21984E-4
1.08000E3                5.13800E2                5.13800E2                9.99657E-1                                     5.08581E-6                                        3.37739E-4
1.08000E3                5.14000E2                5.14000E2                9.99895E-1                                     3.17768E-6                                        1.02123E-4
1.08000E3                5.14200E2                5.14200E2                9.99943E-1                                     2.65975E-6                                        5.47556E-5
1.08000E3                5.14400E2                5.14400E2                9.99956E-1                                     2.46150E-6                                        4.14075E-5
1.08000E3                5.14600E2                5.14600E2                9.99961E-1                                     2.35336E-6                                        3.71383E-5
1.08000E3                5.14800E2                5.14800E2                9.99961E-1                                     2.28361E-6                                        3.70851E-5
1.08000E3                5.15000E2                5.15000E2                9.99958E-1                                     2.23369E-6                                        3.97953E-5
1.08000E3                5.15200E2                5.15200E2                9.99953E-1                                     2.19449E-6                                        4.46257E-5
1.08000E3                5.15400E2                5.15400E2                9.99947E-1                                     2.16060E-6                                        5.11012E-5
1.08000E3                5.15600E2                5.15600E2                9.99939E-1                                     2.12799E-6                                        5.87078E-5
1.08000E3                5.15800E2                5.15800E2                9.99931E-1                                     2.09102E-6                                        6.68866E-5
1.08000E3                5.16000E2                5.16000E2                9.99923E-1                                     2.10323E-6                                        7.45672E-5
1.08000E3                5.16200E2                5.16200E2                9.99917E-1                                     2.05677E-6                                        8.13553E-5
1.08000E3                5.16400E2                5.16400E2                9.99911E-1                                     2.02215E-6                                        8.66065E-5
1.08000E3                5.16600E2                5.16600E2                9.99908E-1                                     1.98999E-6                                        8.98047E-5
1.08000E3                5.16800E2                5.16800E2                9.99907E-1                                     1.96006E-6                                        9.07696E-5
1.08000E3                5.17000E2                5.17000E2                9.99908E-1                                     1.93466E-6                                        8.95985E-5
1.08000E3                5.17200E2                5.17200E2                9.99911E-1                                     1.91900E-6                                        8.67045E-5
1.08000E3                5.17400E2                5.17400E2                9.99915E-1                                     1.92422E-6                                        8.30693E-5
1.08000E3                5.17600E2                5.17600E2                9.99916E-1                                     1.97935E-6                                        8.16880E-5
1.08000E3                5.17800E2                5.17800E2                9.99899E-1                                     2.20097E-6                                        9.92338E-5
1.08000E3                5.18000E2                5.18000E2                9.99458E-1                                     4.08575E-6                                        5.38052E-4
1.08000E3                5.18200E2                5.18200E2                9.99575E-1                                     8.55177E-7                                        4.24582E-4
1.08000E3                5.18400E2                5.18400E2                9.99891E-1                                     1.09281E-6                                        1.08228E-4
1.08000E3                5.18600E2                5.18600E2                9.99934E-1                                     1.18540E-6                                        6.47107E-5
1.08000E3                5.18800E2                5.18800E2                9.99953E-1                                     1.21411E-6                                        4.59204E-5
1.08000E3                5.19000E2                5.19000E2                9.99964E-1                                     1.21710E-6                                        3.43680E-5
1.08000E3                5.19200E2                5.19200E2                9.99972E-1                                     1.20730E-6                                        2.65669E-5
1.08000E3                5.19400E2                5.19400E2                9.99977E-1                                     1.19037E-6                                        2.15959E-5
1.08000E3                5.19600E2                5.19600E2                9.99980E-1                                     1.16969E-6                                        1.92684E-5
1.08000E3                5.19800E2                5.19800E2                9.99979E-1                                     1.14794E-6                                        1.96625E-5
1.08000E3                5.20000E2                5.20000E2                9.99976E-1                                     1.12727E-6                                        2.29442E-5
1.08100E3                5.00000E2                5.00000E2                9.99908E-1                                     5.21338E-6                                        8.67150E-5
1.08100E3                5.00200E2                5.00200E2                9.99906E-1                                     7.20322E-6                                        8.69029E-5
1.08100E3                5.00400E2                5.00400E2                9.99903E-1                                     1.02617E-5                                        8.65467E-5
1.08100E3                5.00600E2                5.00600E2                9.99898E-1                                     1.55195E-5                                        8.61200E-5
1.08100E3                5.00800E2                5.00800E2                9.99887E-1                                     2.61153E-5                                        8.65153E-5
1.08100E3                5.01000E2                5.01000E2                9.99855E-1                                     5.41958E-5                                        9.08350E-5
1.08100E3                5.01200E2                5.01200E2                9.99683E-1                                     1.93717E-4                                        1.22838E-4
1.08100E3                5.01400E2                5.01400E2                4.81853E-1                                     4.12089E-1                                        1.06058E-1
1.08100E3                5.01600E2                5.01600E2                9.99761E-1                                     1.33756E-4                                        1.04808E-4
1.08100E3                5.01800E2                5.01800E2                9.99902E-1                                     2.50895E-5                                        7.25654E-5
1.08100E3                5.02000E2                5.02000E2                9.99928E-1                                     7.41029E-6                                        6.44107E-5
1.08100E3                5.02200E2                5.02200E2                9.99938E-1                                     2.24565E-6                                        5.97598E-5
1.08100E3                5.02400E2                5.02400E2                9.99943E-1                                     4.89422E-7                                        5.62464E-5
1.08100E3                5.02600E2                5.02600E2                9.99947E-1                                     3.52938E-8                                        5.33710E-5
1.08100E3                5.02800E2                5.02800E2                9.99949E-1                                     2.26870E-7                                        5.10336E-5
1.08100E3                5.03000E2                5.03000E2                9.99950E-1                                     8.37904E-7                                        4.92636E-5
1.08100E3                5.03200E2                5.03200E2                9.99950E-1                                     1.80775E-6                                        4.81455E-5
1.08100E3                5.03400E2                5.03400E2                9.99949E-1                                     3.16552E-6                                        4.77891E-5
1.08100E3                5.03600E2                5.03600E2                9.99947E-1                                     5.01645E-6                                        4.83102E-5
1.08100E3                5.03800E2                5.03800E2                9.99943E-1                                     7.56276E-6                                        4.98224E-5
1.08100E3                5.04000E2                5.04000E2                9.99936E-1                                     1.11609E-5                                        5.24299E-5
1.08100E3                5.04200E2                5.04200E2                9.99927E-1                                     1.64515E-5                                        5.62424E-5
1.08100E3                5.04400E2                5.04400E2                9.99914E-1                                     2.46529E-5                                        6.14118E-5
1.08100E3                5.04600E2                5.04600E2                9.99893E-1                                     3.83103E-5                                        6.82377E-5
1.08100E3                5.04800E2                5.04800E2                9.99859E-1                                     6.34824E-5                                        7.76074E-5
1.08100E3                5.05000E2                5.05000E2                9.99790E-1                                     1.17138E-4                                        9.29474E-5
1.08100E3                5.05200E2                5.05200E2                9.99611E-1                                     2.61357E-4                                        1.27718E-4
1.08100E3                5.05400E2                5.05400E2                9.98843E-1                                     8.91650E-4                                        2.65689E-4
1.08100E3                5.05600E2                5.05600E2                9.75121E-1                                     2.05034E-2                                        4.37606E-3
1.08100E3                5.05800E2                5.05800E2                9.96342E-1                                     2.97964E-3                                        6.78807E-4
1.08100E3                5.06000E2                5.06000E2                9.99250E-1                                     5.63324E-4                                        1.86206E-4
1.08100E3                5.06200E2                5.06200E2                9.99642E-1                                     2.37763E-4                                        1.20506E-4
1.08100E3                5.06400E2                5.06400E2                9.99768E-1                                     1.33315E-4                                        9.85043E-5
1.08100E3                5.06600E2                5.06600E2                9.99826E-1                                     8.64822E-5                                        8.71820E-5
1.08100E3                5.06800E2                5.06800E2                9.99859E-1                                     6.12757E-5                                        7.95009E-5
1.08100E3                5.07000E2                5.07000E2                9.99881E-1                                     4.60543E-5                                        7.33491E-5
1.08100E3                5.07200E2                5.07200E2                9.99896E-1                                     3.61793E-5                                        6.78782E-5
1.08100E3                5.07400E2                5.07400E2                9.99908E-1                                     2.94480E-5                                        6.26299E-5
1.08100E3                5.07600E2                5.07600E2                9.99918E-1                                     2.45566E-5                                        5.77007E-5
1.08100E3                5.07800E2                5.07800E2                9.99926E-1                                     2.08448E-5                                        5.31982E-5
1.08100E3                5.08000E2                5.08000E2                9.99933E-1                                     1.79549E-5                                        4.91224E-5
1.08100E3                5.08200E2                5.08200E2                9.99939E-1                                     1.56530E-5                                        4.55071E-5
1.08100E3                5.08400E2                5.08400E2                9.99944E-1                                     1.37796E-5                                        4.24386E-5
1.08100E3                5.08600E2                5.08600E2                9.99948E-1                                     1.22237E-5                                        4.00563E-5
1.08100E3                5.08800E2                5.08800E2                9.99951E-1                                     1.09051E-5                                        3.85731E-5
1.08100E3                5.09000E2                5.09000E2                9.99952E-1                                     9.76250E-6                                        3.83646E-5
1.08100E3                5.09200E2                5.09200E2                9.99951E-1                                     8.75421E-6                                        4.02807E-5
1.08100E3                5.09400E2                5.09400E2                9.99947E-1                                     7.94296E-6                                        4.55219E-5
1.08100E3                5.09600E2                5.09600E2                9.99944E-1                                     7.50651E-6                                        4.86592E-5
1.08100E3                5.09800E2                5.09800E2                9.99945E-1                                     7.03096E-6                                        4.84680E-5
1.08100E3                5.10000E2                5.10000E2                9.99943E-1                                     6.49442E-6                                        5.06209E-5
1.08100E3                5.10200E2                5.10200E2                9.99939E-1                                     5.99888E-6                                        5.45143E-5
1.08100E3                5.10400E2                5.10400E2                9.99935E-1                                     5.55936E-6                                        5.91980E-5
1.08100E3                5.10600E2                5.10600E2                9.99931E-1                                     5.17255E-6                                        6.40094E-5
1.08100E3                5.10800E2                5.10800E2                9.99927E-1                                     4.83308E-6                                        6.84067E-5
1.08100E3                5.11000E2                5.11000E2                9.99924E-1                                     4.53593E-6                                        7.19368E-5
1.08100E3                5.11200E2                5.11200E2                9.99921E-1                                     4.27658E-6                                        7.42566E-5
1.08100E3                5.11400E2                5.11400E2                9.99921E-1                                     4.05131E-6                                        7.51535E-5
1.08100E3                5.11600E2                5.11600E2                9.99922E-1                                     3.85337E-6                                        7.45446E-5