% Model:              cluster_pvk_0_TM_desp_0_SOLVED.mph
% Version:            COMSOL 6.2.0.658
% Date:               Dec 20 2025, 00:56
% Table:              Accumulated Probe Table 13 - 
% h_fib (nm)             lda0 (nm)                lambda0 (nm)             Reflection port 1 (1), Global Variable Probe 1 Transmittance port 2 (1), Global Variable Probe 2 Absorptance total (1), Global Variable Probe 3
1.08000E3                5.00000E2                5.00000E2                9.57056E-1                                     6.63893E-6                                        4.29371E-2
1.08000E3                5.00200E2                5.00200E2                9.57958E-1                                     4.07374E-6                                        4.20377E-2
1.08000E3                5.00400E2                5.00400E2                9.59134E-1                                     2.55016E-6                                        4.08638E-2
1.08000E3                5.00600E2                5.00600E2                9.60484E-1                                     1.53387E-6                                        3.95140E-2
1.08000E3                5.00800E2                5.00800E2                9.61864E-1                                     8.61168E-7                                        3.81353E-2
1.08000E3                5.01000E2                5.01000E2                9.63129E-1                                     4.49352E-7                                        3.68701E-2
1.08000E3                5.01200E2                5.01200E2                9.64183E-1                                     2.15311E-7                                        3.58167E-2
1.08000E3                5.01400E2                5.01400E2                9.64939E-1                                     8.93793E-8                                        3.50607E-2
1.08000E3                5.01600E2                5.01600E2                9.65299E-1                                     3.21044E-8                                        3.47011E-2
1.08000E3                5.01800E2                5.01800E2                9.65162E-1                                     3.14635E-8                                        3.48377E-2
1.08000E3                5.02000E2                5.02000E2                9.64456E-1                                     9.49902E-8                                        3.55436E-2
1.08000E3                5.02200E2                5.02200E2                9.63157E-1                                     2.42662E-7                                        3.68431E-2
1.08000E3                5.02400E2                5.02400E2                9.61298E-1                                     5.01191E-7                                        3.87011E-2
1.08000E3                5.02600E2                5.02600E2                9.58971E-1                                     9.01231E-7                                        4.10286E-2
1.08000E3                5.02800E2                5.02800E2                9.56301E-1                                     1.48773E-6                                        4.36980E-2
1.08000E3                5.03000E2                5.03000E2                9.53433E-1                                     2.41066E-6                                        4.65650E-2
1.08000E3                5.03200E2                5.03200E2                9.50493E-1                                     4.41365E-6                                        4.95026E-2
1.08000E3                5.03400E2                5.03400E2                9.47439E-1                                     1.29731E-5                                        5.25478E-2
1.08000E3                5.03600E2                5.03600E2                9.52615E-1                                     4.36517E-3                                        4.30199E-2
1.08000E3                5.03800E2                5.03800E2                9.44070E-1                                     2.28445E-6                                        5.59274E-2
1.08000E3                5.04000E2                5.04000E2                9.41943E-1                                     5.63802E-7                                        5.80565E-2
1.08000E3                5.04200E2                5.04200E2                9.40374E-1                                     1.09012E-6                                        5.96244E-2
1.08000E3                5.04400E2                5.04400E2                9.39229E-1                                     1.82064E-6                                        6.07691E-2
1.08000E3                5.04600E2                5.04600E2                9.38471E-1                                     2.56060E-6                                        6.15264E-2
1.08000E3                5.04800E2                5.04800E2                9.38081E-1                                     3.26746E-6                                        6.19153E-2
1.08000E3                5.05000E2                5.05000E2                9.38055E-1                                     3.92937E-6                                        6.19413E-2
1.08000E3                5.05200E2                5.05200E2                9.38402E-1                                     4.51967E-6                                        6.15935E-2
1.08000E3                5.05400E2                5.05400E2                9.39118E-1                                     4.93290E-6                                        6.08769E-2
1.08000E3                5.05600E2                5.05600E2                9.40141E-1                                     5.14343E-6                                        5.98535E-2
1.08000E3                5.05800E2                5.05800E2                9.41466E-1                                     5.33448E-6                                        5.85284E-2
1.08000E3                5.06000E2                5.06000E2                9.43133E-1                                     5.57598E-6                                        5.68609E-2
1.08000E3                5.06200E2                5.06200E2                9.45133E-1                                     5.82947E-6                                        5.48611E-2
1.08000E3                5.06400E2                5.06400E2                9.47395E-1                                     6.05360E-6                                        5.25994E-2
1.08000E3                5.06600E2                5.06600E2                9.49788E-1                                     6.23897E-6                                        5.02057E-2
1.08000E3                5.06800E2                5.06800E2                9.52124E-1                                     6.43269E-6                                        4.78696E-2
1.08000E3                5.07000E2                5.07000E2                9.54154E-1                                     6.77650E-6                                        4.58391E-2
1.08000E3                5.07200E2                5.07200E2                9.55554E-1                                     7.60125E-6                                        4.44385E-2
1.08000E3                5.07400E2                5.07400E2                9.55902E-1                                     9.58633E-6                                        4.40883E-2
1.08000E3                5.07600E2                5.07600E2                9.55452E-1                                     1.24440E-5                                        4.45354E-2
1.08000E3                5.07800E2                5.07800E2                9.56355E-1                                     1.16666E-5                                        4.36336E-2
1.08000E3                5.08000E2                5.08000E2                9.57190E-1                                     9.42642E-6                                        4.28005E-2
1.08000E3                5.08200E2                5.08200E2                9.56846E-1                                     8.43219E-6                                        4.31460E-2
1.08000E3                5.08400E2                5.08400E2                9.55717E-1                                     8.27620E-6                                        4.42751E-2
1.08000E3                5.08600E2                5.08600E2                9.54121E-1                                     8.56110E-6                                        4.58709E-2
1.08000E3                5.08800E2                5.08800E2                9.52256E-1                                     9.09537E-6                                        4.77351E-2
1.08000E3                5.09000E2                5.09000E2                9.50271E-1                                     9.77158E-6                                        4.97192E-2
1.08000E3                5.09200E2                5.09200E2                9.48292E-1                                     1.05102E-5                                        5.16976E-2
1.08000E3                5.09400E2                5.09400E2                9.46430E-1                                     1.12467E-5                                        5.35590E-2
1.08000E3                5.09600E2                5.09600E2                9.44790E-1                                     1.20419E-5                                        5.51978E-2
1.08000E3                5.09800E2                5.09800E2                9.43461E-1                                     1.40285E-5                                        5.65255E-2
1.08000E3                5.10000E2                5.10000E2                9.42274E-1                                     1.58518E-5                                        5.77104E-2
1.08000E3                5.10200E2                5.10200E2                9.41394E-1                                     1.62930E-5                                        5.85893E-2
1.08000E3                5.10400E2                5.10400E2                9.40840E-1                                     1.69638E-5                                        5.91429E-2
1.08000E3                5.10600E2                5.10600E2                9.40577E-1                                     1.79383E-5                                        5.94055E-2
1.08000E3                5.10800E2                5.10800E2                9.40596E-1                                     1.92261E-5                                        5.93845E-2
1.08000E3                5.11000E2                5.11000E2                9.40906E-1                                     2.08832E-5                                        5.90735E-2
1.08000E3                5.11200E2                5.11200E2                9.41500E-1                                     2.31031E-5                                        5.84766E-2
1.08000E3                5.11400E2                5.11400E2                9.42282E-1                                     2.65714E-5                                        5.76911E-2
1.08000E3                5.11600E2                5.11600E2                9.42674E-1                                     3.42322E-5                                        5.72918E-2
1.08000E3                5.11800E2                5.11800E2                9.38296E-1                                     6.70348E-5                                        6.16365E-2
1.08000E3                5.12000E2                5.12000E2                9.26532E-1                                     1.36365E-4                                        7.33314E-2
1.08000E3                5.12200E2                5.12200E2                9.49339E-1                                     4.21946E-5                                        5.06186E-2
1.08000E3                5.12400E2                5.12400E2                9.55014E-1                                     2.97381E-5                                        4.49566E-2
1.08000E3                5.12600E2                5.12600E2                9.58367E-1                                     2.64111E-5                                        4.16065E-2
1.08000E3                5.12800E2                5.12800E2                9.60692E-1                                     2.44214E-5                                        3.92833E-2
1.08000E3                5.13000E2                5.13000E2                9.62039E-1                                     2.23538E-5                                        3.79382E-2
1.08000E3                5.13200E2                5.13200E2                9.62389E-1                                     1.98723E-5                                        3.75911E-2
1.08000E3                5.13400E2                5.13400E2                9.61814E-1                                     1.69841E-5                                        3.81687E-2
1.08000E3                5.13600E2                5.13600E2                9.60483E-1                                     1.38484E-5                                        3.95035E-2
1.08000E3                5.13800E2                5.13800E2                9.58616E-1                                     1.07144E-5                                        4.13737E-2
1.08000E3                5.14000E2                5.14000E2                9.56429E-1                                     8.27547E-6                                        4.35627E-2
1.08000E3                5.14200E2                5.14200E2                9.54333E-1                                     4.94953E-6                                        4.56620E-2
1.08000E3                5.14400E2                5.14400E2                9.52271E-1                                     2.83579E-6                                        4.77264E-2
1.08000E3                5.14600E2                5.14600E2                9.50542E-1                                     1.33180E-6                                        4.94568E-2
1.08000E3                5.14800E2                5.14800E2                9.49226E-1                                     4.29261E-7                                        5.07736E-2
1.08000E3                5.15000E2                5.15000E2                9.48309E-1                                     2.51819E-7                                        5.16909E-2
1.08000E3                5.15200E2                5.15200E2                9.47654E-1                                     1.09245E-6                                        5.23449E-2
1.08000E3                5.15400E2                5.15400E2                9.47018E-1                                     3.60325E-6                                        5.29781E-2
1.08000E3                5.15600E2                5.15600E2                9.46105E-1                                     9.64621E-6                                        5.38853E-2
1.08000E3                5.15800E2                5.15800E2                9.44552E-1                                     2.72052E-5                                        5.54204E-2
1.08000E3                5.16000E2                5.16000E2                9.40785E-1                                     1.28520E-4                                        5.90867E-2
1.08000E3                5.16200E2                5.16200E2                7.85952E-1                                     7.59458E-3                                        2.06453E-1
1.08000E3                5.16400E2                5.16400E2                9.37358E-1                                     9.65289E-5                                        6.25456E-2
1.08000E3                5.16600E2                5.16600E2                9.36584E-1                                     2.51616E-5                                        6.33906E-2
1.08000E3                5.16800E2                5.16800E2                9.35006E-1                                     1.00180E-5                                        6.49836E-2
1.08000E3                5.17000E2                5.17000E2                9.33889E-1                                     4.05306E-6                                        6.61069E-2
1.08000E3                5.17200E2                5.17200E2                9.33685E-1                                     1.15669E-6                                        6.63139E-2
1.08000E3                5.17400E2                5.17400E2                9.34734E-1                                     7.02867E-8                                        6.52654E-2
1.08000E3                5.17600E2                5.17600E2                9.37279E-1                                     5.84977E-7                                        6.27200E-2
1.08000E3                5.17800E2                5.17800E2                9.41380E-1                                     2.61432E-6                                        5.86169E-2
1.08000E3                5.18000E2                5.18000E2                9.46815E-1                                     5.83097E-6                                        5.31796E-2
1.08000E3                5.18200E2                5.18200E2                9.53031E-1                                     9.79454E-6                                        4.69588E-2
1.08000E3                5.18400E2                5.18400E2                9.59212E-1                                     1.22246E-5                                        4.07762E-2
1.08000E3                5.18600E2                5.18600E2                9.64591E-1                                     1.56233E-5                                        3.53936E-2
1.08000E3                5.18800E2                5.18800E2                9.68559E-1                                     1.80175E-5                                        3.14234E-2
1.08000E3                5.19000E2                5.19000E2                9.70913E-1                                     1.98791E-5                                        2.90669E-2
1.08000E3                5.19200E2                5.19200E2                9.71791E-1                                     2.15416E-5                                        2.81871E-2
1.08000E3                5.19400E2                5.19400E2                9.71540E-1                                     2.34295E-5                                        2.84368E-2
1.08000E3                5.19600E2                5.19600E2                9.70565E-1                                     2.61978E-5                                        2.94085E-2
1.08000E3                5.19800E2                5.19800E2                9.69218E-1                                     3.12639E-5                                        3.07503E-2
1.08000E3                5.20000E2                5.20000E2                9.67709E-1                                     4.30759E-5                                        3.22478E-2
1.08100E3                5.00000E2                5.00000E2                9.57206E-1                                     9.92891E-6                                        4.27839E-2
1.08100E3                5.00200E2                5.00200E2                9.58016E-1                                     5.23472E-6                                        4.19786E-2
1.08100E3                5.00400E2                5.00400E2                9.59129E-1                                     3.06226E-6                                        4.08679E-2
1.08100E3                5.00600E2                5.00600E2                9.60448E-1                                     1.79594E-6                                        3.95500E-2
1.08100E3                5.00800E2                5.00800E2                9.61843E-1                                     9.96376E-7                                        3.81558E-2
1.08100E3                5.01000E2                5.01000E2                9.63148E-1                                     5.06236E-7                                        3.68516E-2
1.08100E3                5.01200E2                5.01200E2                9.64223E-1                                     2.31224E-7                                        3.57764E-2
1.08100E3                5.01400E2                5.01400E2                9.64975E-1                                     9.41523E-8                                        3.50254E-2
1.08100E3                5.01600E2                5.01600E2                9.65315E-1                                     4.55007E-8                                        3.46846E-2
1.08100E3                5.01800E2                5.01800E2                9.65159E-1                                     6.51333E-8                                        3.48407E-2
1.08100E3                5.02000E2                5.02000E2                9.64440E-1                                     1.53147E-7                                        3.55596E-2
1.08100E3                5.02200E2                5.02200E2                9.63137E-1                                     3.21193E-7                                        3.68625E-2
1.08100E3                5.02400E2                5.02400E2                9.61285E-1                                     5.87001E-7                                        3.87144E-2
1.08100E3                5.02600E2                5.02600E2                9.58971E-1                                     9.71273E-7                                        4.10276E-2
1.08100E3                5.02800E2                5.02800E2                9.56322E-1                                     1.49556E-6                                        4.36767E-2
1.08100E3                5.03000E2                5.03000E2                9.53479E-1                                     2.19515E-6                                        4.65189E-2
1.08100E3                5.03200E2                5.03200E2                9.50584E-1                                     3.25149E-6                                        4.94125E-2
1.08100E3                5.03400E2                5.03400E2                9.47739E-1                                     5.66128E-6                                        5.22554E-2
1.08100E3                5.03600E2                5.03600E2                9.44770E-1                                     1.81036E-5                                        5.52115E-2
1.08100E3                5.03800E2                5.03800E2                9.46142E-1                                     1.05037E-4                                        5.37527E-2
1.08100E3                5.04000E2                5.04000E2                9.42142E-1                                     1.77885E-6                                        5.78561E-2
1.08100E3                5.04200E2                5.04200E2                9.40437E-1                                     1.54144E-6                                        5.95614E-2
1.08100E3                5.04400E2                5.04400E2                9.39249E-1                                     2.32539E-6                                        6.07484E-2
1.08100E3                5.04600E2                5.04600E2                9.38470E-1                                     3.12123E-6                                        6.15264E-2
1.08100E3                5.04800E2                5.04800E2                9.38066E-1                                     3.82622E-6                                        6.19303E-2
1.08100E3                5.05000E2                5.05000E2                9.38021E-1                                     4.43715E-6                                        6.19750E-2
1.08100E3                5.05200E2                5.05200E2                9.38338E-1                                     4.97063E-6                                        6.16568E-2
1.08100E3                5.05400E2                5.05400E2                9.39038E-1                                     5.39618E-6                                        6.09565E-2
1.08100E3                5.05600E2                5.05600E2                9.40105E-1                                     5.59993E-6                                        5.98896E-2
1.08100E3                5.05800E2                5.05800E2                9.41475E-1                                     5.63681E-6                                        5.85189E-2
1.08100E3                5.06000E2                5.06000E2                9.43159E-1                                     5.68848E-6                                        5.68351E-2
1.08100E3                5.06200E2                5.06200E2                9.45170E-1                                     5.76770E-6                                        5.48238E-2
1.08100E3                5.06400E2                5.06400E2                9.47453E-1                                     5.83555E-6                                        5.25414E-2
1.08100E3                5.06600E2                5.06600E2                9.49883E-1                                     5.89208E-6                                        5.01108E-2
1.08100E3                5.06800E2                5.06800E2                9.52283E-1                                     5.98955E-6                                        4.77111E-2
1.08100E3                5.07000E2                5.07000E2                9.54428E-1                                     6.24308E-6                                        4.55653E-2
1.08100E3                5.07200E2                5.07200E2                9.56061E-1                                     6.88324E-6                                        4.39322E-2
1.08100E3                5.07400E2                5.07400E2                9.56862E-1                                     8.43027E-6                                        4.31298E-2
1.08100E3                5.07600E2                5.07600E2                9.56468E-1                                     1.18773E-5                                        4.35203E-2
1.08100E3                5.07800E2                5.07800E2                9.55645E-1                                     1.56563E-5                                        4.43395E-2
1.08100E3                5.08000E2                5.08000E2                9.56274E-1                                     1.38136E-5                                        4.37119E-2
1.08100E3                5.08200E2                5.08200E2                9.56412E-1                                     1.11798E-5                                        4.35765E-2
1.08100E3                5.08400E2                5.08400E2                9.55523E-1                                     1.01342E-5                                        4.44669E-2
1.08100E3                5.08600E2                5.08600E2                9.54026E-1                                     1.00198E-5                                        4.59642E-2
1.08100E3                5.08800E2                5.08800E2                9.52204E-1                                     1.03705E-5                                        4.77861E-2
1.08100E3                5.09000E2                5.09000E2                9.50238E-1                                     1.09531E-5                                        4.97506E-2
1.08100E3                5.09200E2                5.09200E2                9.48269E-1                                     1.16259E-5                                        5.17191E-2
1.08100E3                5.09400E2                5.09400E2                9.46411E-1                                     1.22808E-5                                        5.35772E-2
1.08100E3                5.09600E2                5.09600E2                9.44759E-1                                     1.28486E-5                                        5.52284E-2
1.08100E3                5.09800E2                5.09800E2                9.43403E-1                                     1.35551E-5                                        5.65835E-2
1.08100E3                5.10000E2                5.10000E2                9.42360E-1                                     1.59599E-5                                        5.76243E-2
1.08100E3                5.10200E2                5.10200E2                9.41450E-1                                     1.67921E-5                                        5.85334E-2
1.08100E3                5.10400E2                5.10400E2                9.40882E-1                                     1.66459E-5                                        5.91015E-2
1.08100E3                5.10600E2                5.10600E2                9.40628E-1                                     1.67645E-5                                        5.93548E-2
1.08100E3                5.10800E2                5.10800E2                9.40673E-1                                     1.70929E-5                                        5.93103E-2
1.08100E3                5.11000E2                5.11000E2                9.41028E-1                                     1.75773E-5                                        5.89544E-2
1.08100E3                5.11200E2                5.11200E2                9.41718E-1                                     1.82014E-5                                        5.82642E-2
1.08100E3                5.11400E2                5.11400E2                9.42736E-1                                     1.90293E-5                                        5.72451E-2
1.08100E3                5.11600E2                5.11600E2                9.43935E-1                                     2.04596E-5                                        5.60445E-2