% Model:              cluster_pvk_0_TE_desp_1_SOLVED.mph
% Version:            COMSOL 6.2.0.658
% Date:               Dec 20 2025, 18:01
% Table:              Accumulated Probe Table 13 - 
% h_fib (nm)             lda0 (nm)                lambda0 (nm)             Reflection port 1 (1), Global Variable Probe 1 Transmittance port 2 (1), Global Variable Probe 2 Absorptance total (1), Global Variable Probe 3
1.08000E3                5.00000E2                5.00000E2                9.99542E-1                                     1.51575E-4                                        3.06457E-4
1.08000E3                5.00200E2                5.00200E2                9.99886E-1                                     7.22224E-6                                        1.06657E-4
1.08000E3                5.00400E2                5.00400E2                9.99908E-1                                     4.44908E-7                                        9.13663E-5
1.08000E3                5.00600E2                5.00600E2                9.99913E-1                                     1.38741E-7                                        8.66795E-5
1.08000E3                5.00800E2                5.00800E2                9.99915E-1                                     9.02146E-7                                        8.38885E-5
1.08000E3                5.01000E2                5.01000E2                9.99917E-1                                     1.96971E-6                                        8.14790E-5
1.08000E3                5.01200E2                5.01200E2                9.99918E-1                                     3.20553E-6                                        7.90984E-5
1.08000E3                5.01400E2                5.01400E2                9.99919E-1                                     4.61739E-6                                        7.66964E-5
1.08000E3                5.01600E2                5.01600E2                9.99919E-1                                     6.27332E-6                                        7.43182E-5
1.08000E3                5.01800E2                5.01800E2                9.99920E-1                                     8.28064E-6                                        7.20141E-5
1.08000E3                5.02000E2                5.02000E2                9.99919E-1                                     1.08567E-5                                        6.98650E-5
1.08000E3                5.02200E2                5.02200E2                9.99918E-1                                     1.43853E-5                                        6.80346E-5
1.08000E3                5.02400E2                5.02400E2                9.99913E-1                                     1.97065E-5                                        6.70101E-5
1.08000E3                5.02600E2                5.02600E2                9.99903E-1                                     2.90231E-5                                        6.82626E-5
1.08000E3                5.02800E2                5.02800E2                9.99872E-1                                     5.03524E-5                                        7.76203E-5
1.08000E3                5.03000E2                5.03000E2                9.99711E-1                                     1.43401E-4                                        1.45348E-4
1.08000E3                5.03200E2                5.03200E2                9.72953E-1                                     1.20783E-2                                        1.49688E-2
1.08000E3                5.03400E2                5.03400E2                9.99861E-1                                     1.58140E-5                                        1.23640E-4
1.08000E3                5.03600E2                5.03600E2                9.99927E-1                                     1.79817E-8                                        7.28926E-5
1.08000E3                5.03800E2                5.03800E2                9.99932E-1                                     3.52366E-6                                        6.39974E-5
1.08000E3                5.04000E2                5.04000E2                9.99928E-1                                     9.45050E-6                                        6.27634E-5
1.08000E3                5.04200E2                5.04200E2                9.99918E-1                                     1.70385E-5                                        6.47163E-5
1.08000E3                5.04400E2                5.04400E2                9.99904E-1                                     2.71885E-5                                        6.88738E-5
1.08000E3                5.04600E2                5.04600E2                9.99883E-1                                     4.18158E-5                                        7.52426E-5
1.08000E3                5.04800E2                5.04800E2                9.99851E-1                                     6.47148E-5                                        8.46280E-5
1.08000E3                5.05000E2                5.05000E2                9.99797E-1                                     1.04206E-4                                        9.91677E-5
1.08000E3                5.05200E2                5.05200E2                9.99693E-1                                     1.81690E-4                                        1.24927E-4
1.08000E3                5.05400E2                5.05400E2                9.99451E-1                                     3.66981E-4                                        1.81808E-4
1.08000E3                5.05600E2                5.05600E2                9.98622E-1                                     1.00748E-3                                        3.70202E-4
1.08000E3                5.05800E2                5.05800E2                9.90660E-1                                     7.18151E-3                                        2.15818E-3
1.08000E3                5.06000E2                5.06000E2                9.76518E-1                                     1.81823E-2                                        5.29961E-3
1.08000E3                5.06200E2                5.06200E2                9.97990E-1                                     1.50534E-3                                        5.04429E-4
1.08000E3                5.06400E2                5.06400E2                9.99256E-1                                     5.22717E-4                                        2.21497E-4
1.08000E3                5.06600E2                5.06600E2                9.99588E-1                                     2.65838E-4                                        1.45693E-4
1.08000E3                5.06800E2                5.06800E2                9.99725E-1                                     1.61788E-4                                        1.12939E-4
1.08000E3                5.07000E2                5.07000E2                9.99796E-1                                     1.09299E-4                                        9.44657E-5
1.08000E3                5.07200E2                5.07200E2                9.99839E-1                                     7.90552E-5                                        8.20720E-5
1.08000E3                5.07400E2                5.07400E2                9.99867E-1                                     6.00099E-5                                        7.27298E-5
1.08000E3                5.07600E2                5.07600E2                9.99888E-1                                     4.72386E-5                                        6.51349E-5
1.08000E3                5.07800E2                5.07800E2                9.99903E-1                                     3.82626E-5                                        5.87114E-5
1.08000E3                5.08000E2                5.08000E2                9.99915E-1                                     3.17107E-5                                        5.32321E-5
1.08000E3                5.08200E2                5.08200E2                9.99925E-1                                     2.67731E-5                                        4.86068E-5
1.08000E3                5.08400E2                5.08400E2                9.99932E-1                                     2.29513E-5                                        4.47976E-5
1.08000E3                5.08600E2                5.08600E2                9.99938E-1                                     1.99261E-5                                        4.18124E-5
1.08000E3                5.08800E2                5.08800E2                9.99943E-1                                     1.74851E-5                                        3.97023E-5
1.08000E3                5.09000E2                5.09000E2                9.99946E-1                                     1.54820E-5                                        3.85463E-5
1.08000E3                5.09200E2                5.09200E2                9.99948E-1                                     1.38137E-5                                        3.84291E-5
1.08000E3                5.09400E2                5.09400E2                9.99948E-1                                     1.24062E-5                                        3.94180E-5
1.08000E3                5.09600E2                5.09600E2                9.99947E-1                                     1.12052E-5                                        4.15390E-5
1.08000E3                5.09800E2                5.09800E2                9.99945E-1                                     1.01702E-5                                        4.47522E-5
1.08000E3                5.10000E2                5.10000E2                9.99942E-1                                     9.26942E-6                                        4.89230E-5
1.08000E3                5.10200E2                5.10200E2                9.99938E-1                                     8.47852E-6                                        5.37876E-5
1.08000E3                5.10400E2                5.10400E2                9.99933E-1                                     7.78094E-6                                        5.89509E-5
1.08000E3                5.10600E2                5.10600E2                9.99929E-1                                     7.16616E-6                                        6.39663E-5
1.08000E3                5.10800E2                5.10800E2                9.99925E-1                                     6.62460E-6                                        6.84157E-5
1.08000E3                5.11000E2                5.11000E2                9.99922E-1                                     6.14613E-6                                        7.19307E-5
1.08000E3                5.11200E2                5.11200E2                9.99920E-1                                     5.72139E-6                                        7.42163E-5
1.08000E3                5.11400E2                5.11400E2                9.99920E-1                                     5.34245E-6                                        7.50897E-5
1.08000E3                5.11600E2                5.11600E2                9.99920E-1                                     5.00263E-6                                        7.45020E-5
1.08000E3                5.11800E2                5.11800E2                9.99923E-1                                     4.69626E-6                                        7.25354E-5
1.08000E3                5.12000E2                5.12000E2                9.99926E-1                                     4.41847E-6                                        6.93767E-5
1.08000E3                5.12200E2                5.12200E2                9.99931E-1                                     4.16515E-6                                        6.52753E-5
1.08000E3                5.12400E2                5.12400E2                9.99936E-1                                     3.93278E-6                                        6.04910E-5
1.08000E3                5.12600E2                5.12600E2                9.99941E-1                                     3.71854E-6                                        5.52798E-5
1.08000E3                5.12800E2                5.12800E2                9.99946E-1                                     3.52084E-6                                        4.99830E-5
1.08000E3                5.13000E2                5.13000E2                9.99952E-1                                     3.33942E-6                                        4.49924E-5
1.08000E3                5.13200E2                5.13200E2                9.99956E-1                                     3.17381E-6                                        4.05174E-5
1.08000E3                5.13400E2                5.13400E2                9.99960E-1                                     3.02291E-6                                        3.66118E-5
1.08000E3                5.13600E2                5.13600E2                9.99964E-1                                     2.88525E-6                                        3.33129E-5
1.08000E3                5.13800E2                5.13800E2                9.99967E-1                                     2.75913E-6                                        3.06985E-5
1.08000E3                5.14000E2                5.14000E2                9.99968E-1                                     2.64287E-6                                        2.89032E-5
1.08000E3                5.14200E2                5.14200E2                9.99969E-1                                     2.53497E-6                                        2.81186E-5
1.08000E3                5.14400E2                5.14400E2                9.99969E-1                                     2.43405E-6                                        2.85841E-5
1.08000E3                5.14600E2                5.14600E2                9.99967E-1                                     2.33812E-6                                        3.05758E-5
1.08000E3                5.14800E2                5.14800E2                9.99963E-1                                     2.24317E-6                                        3.43310E-5
1.08000E3                5.15000E2                5.15000E2                9.99958E-1                                     2.14529E-6                                        3.96560E-5
1.08000E3                5.15200E2                5.15200E2                9.99952E-1                                     2.05229E-6                                        4.58374E-5
1.08000E3                5.15400E2                5.15400E2                9.99945E-1                                     1.97254E-6                                        5.28280E-5
1.08000E3                5.15600E2                5.15600E2                9.99937E-1                                     1.90276E-6                                        6.06879E-5
1.08000E3                5.15800E2                5.15800E2                9.99929E-1                                     1.83980E-6                                        6.89378E-5
1.08000E3                5.16000E2                5.16000E2                9.99921E-1                                     1.78304E-6                                        7.68596E-5
1.08000E3                5.16200E2                5.16200E2                9.99915E-1                                     1.73242E-6                                        8.37292E-5
1.08000E3                5.16400E2                5.16400E2                9.99909E-1                                     1.68744E-6                                        8.89531E-5
1.08000E3                5.16600E2                5.16600E2                9.99906E-1                                     1.64701E-6                                        9.21550E-5
1.08000E3                5.16800E2                5.16800E2                9.99905E-1                                     1.60989E-6                                        9.31895E-5
1.08000E3                5.17000E2                5.17000E2                9.99906E-1                                     1.57510E-6                                        9.20196E-5
1.08000E3                5.17200E2                5.17200E2                9.99910E-1                                     1.53948E-6                                        8.82503E-5
1.08000E3                5.17400E2                5.17400E2                9.99917E-1                                     1.49634E-6                                        8.17023E-5
1.08000E3                5.17600E2                5.17600E2                9.99924E-1                                     1.45191E-6                                        7.42576E-5
1.08000E3                5.17800E2                5.17800E2                9.99932E-1                                     1.41062E-6                                        6.64451E-5
1.08000E3                5.18000E2                5.18000E2                9.99940E-1                                     1.37056E-6                                        5.81999E-5
1.08000E3                5.18200E2                5.18200E2                9.99949E-1                                     1.33037E-6                                        4.97693E-5
1.08000E3                5.18400E2                5.18400E2                9.99957E-1                                     1.28937E-6                                        4.15288E-5
1.08000E3                5.18600E2                5.18600E2                9.99965E-1                                     1.24687E-6                                        3.39044E-5
1.08000E3                5.18800E2                5.18800E2                9.99971E-1                                     1.20120E-6                                        2.73999E-5
1.08000E3                5.19000E2                5.19000E2                9.99976E-1                                     1.14775E-6                                        2.27888E-5
1.08000E3                5.19200E2                5.19200E2                9.99977E-1                                     1.07590E-6                                        2.18460E-5
1.08000E3                5.19400E2                5.19400E2                9.99971E-1                                     1.00177E-6                                        2.75510E-5
1.08000E3                5.19600E2                5.19600E2                9.99972E-1                                     1.07467E-6                                        2.69581E-5
1.08000E3                5.19800E2                5.19800E2                9.99978E-1                                     1.12645E-6                                        2.12627E-5
1.08000E3                5.20000E2                5.20000E2                9.99977E-1                                     1.11655E-6                                        2.20917E-5
1.08100E3                5.00000E2                5.00000E2                9.98528E-1                                     6.82643E-4                                        7.89278E-4
1.08100E3                5.00200E2                5.00200E2                9.99742E-1                                     6.47498E-5                                        1.93750E-4
1.08100E3                5.00400E2                5.00400E2                9.99895E-1                                     4.04510E-6                                        1.00963E-4
1.08100E3                5.00600E2                5.00600E2                9.99911E-1                                     1.34043E-7                                        8.93440E-5
1.08100E3                5.00800E2                5.00800E2                9.99915E-1                                     3.01346E-7                                        8.48832E-5
1.08100E3                5.01000E2                5.01000E2                9.99917E-1                                     1.21220E-6                                        8.18423E-5
1.08100E3                5.01200E2                5.01200E2                9.99919E-1                                     2.35394E-6                                        7.91250E-5
1.08100E3                5.01400E2                5.01400E2                9.99920E-1                                     3.64546E-6                                        7.64829E-5
1.08100E3                5.01600E2                5.01600E2                9.99921E-1                                     5.11332E-6                                        7.38945E-5
1.08100E3                5.01800E2                5.01800E2                9.99922E-1                                     6.82324E-6                                        7.14471E-5
1.08100E3                5.02000E2                5.02000E2                9.99922E-1                                     8.93924E-6                                        6.90465E-5
1.08100E3                5.02200E2                5.02200E2                9.99921E-1                                     1.16621E-5                                        6.69128E-5
1.08100E3                5.02400E2                5.02400E2                9.99919E-1                                     1.54466E-5                                        6.52081E-5
1.08100E3                5.02600E2                5.02600E2                9.99914E-1                                     2.12841E-5                                        6.45382E-5
1.08100E3                5.02800E2                5.02800E2                9.99901E-1                                     3.19035E-5                                        6.67345E-5
1.08100E3                5.03000E2                5.03000E2                9.99862E-1                                     5.82013E-5                                        7.97574E-5
1.08100E3                5.03200E2                5.03200E2                9.99598E-1                                     2.06425E-4                                        1.95470E-4
1.08100E3                5.03400E2                5.03400E2                9.98154E-1                                     7.24107E-4                                        1.12213E-3
1.08100E3                5.03600E2                5.03600E2                9.99891E-1                                     6.86808E-6                                        1.02479E-4
1.08100E3                5.03800E2                5.03800E2                9.99929E-1                                     3.85214E-7                                        7.02419E-5
1.08100E3                5.04000E2                5.04000E2                9.99931E-1                                     4.79062E-6                                        6.45451E-5
1.08100E3                5.04200E2                5.04200E2                9.99924E-1                                     1.10990E-5                                        6.48321E-5
1.08100E3                5.04400E2                5.04400E2                9.99913E-1                                     1.91531E-5                                        6.78614E-5
1.08100E3                5.04600E2                5.04600E2                9.99897E-1                                     3.00559E-5                                        7.28718E-5
1.08100E3                5.04800E2                5.04800E2                9.99874E-1                                     4.59983E-5                                        7.99410E-5
1.08100E3                5.05000E2                5.05000E2                9.99839E-1                                     7.13733E-5                                        8.99884E-5
1.08100E3                5.05200E2                5.05200E2                9.99778E-1                                     1.16047E-4                                        1.05469E-4
1.08100E3                5.05400E2                5.05400E2                9.99660E-1                                     2.06353E-4                                        1.33628E-4
1.08100E3                5.05600E2                5.05600E2                9.99367E-1                                     4.33472E-4                                        1.99769E-4
1.08100E3                5.05800E2                5.05800E2                9.98245E-1                                     1.30858E-3                                        4.46847E-4
1.08100E3                5.06000E2                5.06000E2                9.80961E-1                                     1.48194E-2                                        4.21925E-3
1.08100E3                5.06200E2                5.06200E2                9.88952E-1                                     8.59721E-3                                        2.45092E-3
1.08100E3                5.06400E2                5.06400E2                9.98412E-1                                     1.18959E-3                                        3.98726E-4
1.08100E3                5.06600E2                5.06600E2                9.99349E-1                                     4.56591E-4                                        1.94464E-4
1.08100E3                5.06800E2                5.06800E2                9.99625E-1                                     2.42222E-4                                        1.32602E-4
1.08100E3                5.07000E2                5.07000E2                9.99745E-1                                     1.50855E-4                                        1.04133E-4
1.08100E3                5.07200E2                5.07200E2                9.99809E-1                                     1.03403E-4                                        8.74719E-5
1.08100E3                5.07400E2                5.07400E2                9.99848E-1                                     7.55520E-5                                        7.60736E-5
1.08100E3                5.07600E2                5.07600E2                9.99875E-1                                     5.77976E-5                                        6.74087E-5
1.08100E3                5.07800E2                5.07800E2                9.99894E-1                                     4.57885E-5                                        6.03551E-5
1.08100E3                5.08000E2                5.08000E2                9.99908E-1                                     3.72863E-5                                        5.44260E-5
1.08100E3                5.08200E2                5.08200E2                9.99920E-1                                     3.10344E-5                                        4.94496E-5
1.08100E3                5.08400E2                5.08400E2                9.99928E-1                                     2.62873E-5                                        4.53765E-5
1.08100E3                5.08600E2                5.08600E2                9.99935E-1                                     2.25861E-5                                        4.22036E-5
1.08100E3                5.08800E2                5.08800E2                9.99940E-1                                     1.96364E-5                                        3.99634E-5
1.08100E3                5.09000E2                5.09000E2                9.99944E-1                                     1.72421E-5                                        3.87173E-5
1.08100E3                5.09200E2                5.09200E2                9.99946E-1                                     1.52680E-5                                        3.85366E-5
1.08100E3                5.09400E2                5.09400E2                9.99947E-1                                     1.36188E-5                                        3.94792E-5
1.08100E3                5.09600E2                5.09600E2                9.99946E-1                                     1.22253E-5                                        4.15651E-5
1.08100E3                5.09800E2                5.09800E2                9.99944E-1                                     1.10360E-5                                        4.47531E-5
1.08100E3                5.10000E2                5.10000E2                9.99941E-1                                     1.00117E-5                                        4.89177E-5
1.08100E3                5.10200E2                5.10200E2                9.99937E-1                                     9.12096E-6                                        5.38196E-5
1.08100E3                5.10400E2                5.10400E2                9.99933E-1                                     8.34008E-6                                        5.90707E-5
1.08100E3                5.10600E2                5.10600E2                9.99928E-1                                     7.65369E-6                                        6.41701E-5
1.08100E3                5.10800E2                5.10800E2                9.99924E-1                                     7.05143E-6                                        6.86485E-5
1.08100E3                5.11000E2                5.11000E2                9.99921E-1                                     6.52253E-6                                        7.21446E-5
1.08100E3                5.11200E2                5.11200E2                9.99920E-1                                     6.05576E-6                                        7.43907E-5
1.08100E3                5.11400E2                5.11400E2                9.99919E-1                                     5.64108E-6                                        7.52201E-5
1.08100E3                5.11600E2                5.11600E2                9.99920E-1                                     5.27009E-6                                        7.45901E-5