% Model:              cluster_pvk_0_TM_desp_1_SOLVED.mph
% Version:            COMSOL 6.2.0.658
% Date:               Dec 20 2025, 18:04
% Table:              Accumulated Probe Table 13 - 
% h_fib (nm)             lda0 (nm)                lambda0 (nm)             Reflection port 1 (1), Global Variable Probe 1 Transmittance port 2 (1), Global Variable Probe 2 Absorptance total (1), Global Variable Probe 3
1.08000E3                5.00000E2                5.00000E2                9.57463E-1                                     9.10991E-7                                        4.25364E-2
1.08000E3                5.00200E2                5.00200E2                9.58664E-1                                     3.02517E-7                                        4.13361E-2
1.08000E3                5.00400E2                5.00400E2                9.60027E-1                                     4.47806E-8                                        3.99725E-2
1.08000E3                5.00600E2                5.00600E2                9.61452E-1                                     6.72208E-8                                        3.85484E-2
1.08000E3                5.00800E2                5.00800E2                9.62807E-1                                     3.14020E-7                                        3.71932E-2
1.08000E3                5.01000E2                5.01000E2                9.63950E-1                                     8.18948E-7                                        3.60493E-2
1.08000E3                5.01200E2                5.01200E2                9.64737E-1                                     1.84800E-6                                        3.52608E-2
1.08000E3                5.01400E2                5.01400E2                9.65027E-1                                     4.46534E-6                                        3.49686E-2
1.08000E3                5.01600E2                5.01600E2                9.64618E-1                                     1.47533E-5                                        3.53672E-2
1.08000E3                5.01800E2                5.01800E2                9.61820E-1                                     1.97998E-4                                        3.79820E-2
1.08000E3                5.02000E2                5.02000E2                9.64883E-1                                     6.93587E-5                                        3.50481E-2
1.08000E3                5.02200E2                5.02200E2                9.62459E-1                                     7.78148E-6                                        3.75337E-2
1.08000E3                5.02400E2                5.02400E2                9.60257E-1                                     1.66010E-6                                        3.97415E-2
1.08000E3                5.02600E2                5.02600E2                9.57891E-1                                     2.09296E-7                                        4.21091E-2
1.08000E3                5.02800E2                5.02800E2                9.55386E-1                                     3.12448E-8                                        4.46139E-2
1.08000E3                5.03000E2                5.03000E2                9.52814E-1                                     4.50184E-7                                        4.71855E-2
1.08000E3                5.03200E2                5.03200E2                9.50251E-1                                     1.23156E-6                                        4.97480E-2
1.08000E3                5.03400E2                5.03400E2                9.47770E-1                                     2.23074E-6                                        5.22279E-2
1.08000E3                5.03600E2                5.03600E2                9.45435E-1                                     3.32722E-6                                        5.45621E-2
1.08000E3                5.03800E2                5.03800E2                9.43310E-1                                     4.42813E-6                                        5.66854E-2
1.08000E3                5.04000E2                5.04000E2                9.41447E-1                                     5.50956E-6                                        5.85475E-2
1.08000E3                5.04200E2                5.04200E2                9.39884E-1                                     6.64031E-6                                        6.01095E-2
1.08000E3                5.04400E2                5.04400E2                9.38641E-1                                     8.02391E-6                                        6.13514E-2
1.08000E3                5.04600E2                5.04600E2                9.37705E-1                                     1.02166E-5                                        6.22845E-2
1.08000E3                5.04800E2                5.04800E2                9.36982E-1                                     1.57120E-5                                        6.30025E-2
1.08000E3                5.05000E2                5.05000E2                9.35530E-1                                     6.51294E-5                                        6.44053E-2
1.08000E3                5.05200E2                5.05200E2                9.39458E-1                                     4.82491E-5                                        6.04937E-2
1.08000E3                5.05400E2                5.05400E2                9.38950E-1                                     1.02950E-5                                        6.10401E-2
1.08000E3                5.05600E2                5.05600E2                9.39686E-1                                     8.58322E-6                                        6.03053E-2
1.08000E3                5.05800E2                5.05800E2                9.40938E-1                                     8.47766E-6                                        5.90535E-2
1.08000E3                5.06000E2                5.06000E2                9.42618E-1                                     8.55662E-6                                        5.73731E-2
1.08000E3                5.06200E2                5.06200E2                9.44686E-1                                     8.65947E-6                                        5.53052E-2
1.08000E3                5.06400E2                5.06400E2                9.47085E-1                                     8.77560E-6                                        5.29063E-2
1.08000E3                5.06600E2                5.06600E2                9.49717E-1                                     8.86199E-6                                        5.02741E-2
1.08000E3                5.06800E2                5.06800E2                9.52429E-1                                     8.83313E-6                                        4.75620E-2
1.08000E3                5.07000E2                5.07000E2                9.55016E-1                                     8.60001E-6                                        4.49754E-2
1.08000E3                5.07200E2                5.07200E2                9.57248E-1                                     8.11107E-6                                        4.27436E-2
1.08000E3                5.07400E2                5.07400E2                9.58918E-1                                     7.37546E-6                                        4.10750E-2
1.08000E3                5.07600E2                5.07600E2                9.59882E-1                                     6.46403E-6                                        4.01119E-2
1.08000E3                5.07800E2                5.07800E2                9.60088E-1                                     5.48324E-6                                        3.99063E-2
1.08000E3                5.08000E2                5.08000E2                9.59575E-1                                     4.53170E-6                                        4.04209E-2
1.08000E3                5.08200E2                5.08200E2                9.58444E-1                                     3.67040E-6                                        4.15525E-2
1.08000E3                5.08400E2                5.08400E2                9.56834E-1                                     2.92572E-6                                        4.31627E-2
1.08000E3                5.08600E2                5.08600E2                9.54894E-1                                     2.30484E-6                                        4.51037E-2
1.08000E3                5.08800E2                5.08800E2                9.52765E-1                                     1.79785E-6                                        4.72334E-2
1.08000E3                5.09000E2                5.09000E2                9.50576E-1                                     1.38034E-6                                        4.94223E-2
1.08000E3                5.09200E2                5.09200E2                9.48443E-1                                     1.03144E-6                                        5.15560E-2
1.08000E3                5.09400E2                5.09400E2                9.46462E-1                                     7.46484E-7                                        5.35374E-2
1.08000E3                5.09600E2                5.09600E2                9.44710E-1                                     5.30216E-7                                        5.52891E-2
1.08000E3                5.09800E2                5.09800E2                9.43244E-1                                     3.84465E-7                                        5.67555E-2
1.08000E3                5.10000E2                5.10000E2                9.42097E-1                                     3.05332E-7                                        5.79032E-2
1.08000E3                5.10200E2                5.10200E2                9.41284E-1                                     2.90263E-7                                        5.87153E-2
1.08000E3                5.10400E2                5.10400E2                9.40819E-1                                     3.48475E-7                                        5.91810E-2
1.08000E3                5.10600E2                5.10600E2                9.40712E-1                                     5.06941E-7                                        5.92878E-2
1.08000E3                5.10800E2                5.10800E2                9.40969E-1                                     7.97741E-7                                        5.90301E-2
1.08000E3                5.11000E2                5.11000E2                9.41571E-1                                     1.21770E-6                                        5.84274E-2
1.08000E3                5.11200E2                5.11200E2                9.42493E-1                                     1.70746E-6                                        5.75053E-2
1.08000E3                5.11400E2                5.11400E2                9.43761E-1                                     2.20588E-6                                        5.62367E-2
1.08000E3                5.11600E2                5.11600E2                9.45452E-1                                     2.69684E-6                                        5.45453E-2
1.08000E3                5.11800E2                5.11800E2                9.47619E-1                                     3.18283E-6                                        5.23783E-2
1.08000E3                5.12000E2                5.12000E2                9.50228E-1                                     3.65668E-6                                        4.97680E-2
1.08000E3                5.12200E2                5.12200E2                9.53137E-1                                     4.10901E-6                                        4.68588E-2
1.08000E3                5.12400E2                5.12400E2                9.56092E-1                                     4.54467E-6                                        4.39032E-2
1.08000E3                5.12600E2                5.12600E2                9.58772E-1                                     4.98468E-6                                        4.12234E-2
1.08000E3                5.12800E2                5.12800E2                9.60856E-1                                     5.45399E-6                                        3.91390E-2
1.08000E3                5.13000E2                5.13000E2                9.62108E-1                                     5.96542E-6                                        3.78858E-2
1.08000E3                5.13200E2                5.13200E2                9.62432E-1                                     6.50905E-6                                        3.75611E-2
1.08000E3                5.13400E2                5.13400E2                9.61874E-1                                     7.05629E-6                                        3.81191E-2
1.08000E3                5.13600E2                5.13600E2                9.60583E-1                                     7.58489E-6                                        3.94099E-2
1.08000E3                5.13800E2                5.13800E2                9.58764E-1                                     8.08588E-6                                        4.12277E-2
1.08000E3                5.14000E2                5.14000E2                9.56648E-1                                     8.53921E-6                                        4.33439E-2
1.08000E3                5.14200E2                5.14200E2                9.54459E-1                                     8.90882E-6                                        4.55318E-2
1.08000E3                5.14400E2                5.14400E2                9.52405E-1                                     9.15949E-6                                        4.75860E-2
1.08000E3                5.14600E2                5.14600E2                9.50650E-1                                     9.27772E-6                                        4.93406E-2
1.08000E3                5.14800E2                5.14800E2                9.49292E-1                                     9.28215E-6                                        5.06984E-2
1.08000E3                5.15000E2                5.15000E2                9.48326E-1                                     9.20670E-6                                        5.16644E-2
1.08000E3                5.15200E2                5.15200E2                9.47629E-1                                     9.06673E-6                                        5.23623E-2
1.08000E3                5.15400E2                5.15400E2                9.46998E-1                                     8.87206E-6                                        5.29932E-2
1.08000E3                5.15600E2                5.15600E2                9.46234E-1                                     8.73408E-6                                        5.37577E-2
1.08000E3                5.15800E2                5.15800E2                9.45115E-1                                     8.85022E-6                                        5.48760E-2
1.08000E3                5.16000E2                5.16000E2                9.43470E-1                                     9.28134E-6                                        5.65210E-2
1.08000E3                5.16200E2                5.16200E2                9.41352E-1                                     1.00926E-5                                        5.86377E-2
1.08000E3                5.16400E2                5.16400E2                9.38955E-1                                     1.14479E-5                                        6.10332E-2
1.08000E3                5.16600E2                5.16600E2                9.36514E-1                                     1.35449E-5                                        6.34726E-2
1.08000E3                5.16800E2                5.16800E2                9.34282E-1                                     1.65999E-5                                        6.57010E-2
1.08000E3                5.17000E2                5.17000E2                9.32528E-1                                     2.08682E-5                                        6.74510E-2
1.08000E3                5.17200E2                5.17200E2                9.31509E-1                                     2.66620E-5                                        6.84644E-2
1.08000E3                5.17400E2                5.17400E2                9.31428E-1                                     3.41757E-5                                        6.85375E-2
1.08000E3                5.17600E2                5.17600E2                9.32555E-1                                     4.15673E-5                                        6.74038E-2
1.08000E3                5.17800E2                5.17800E2                9.36400E-1                                     3.85693E-5                                        6.35615E-2
1.08000E3                5.18000E2                5.18000E2                9.44035E-1                                     2.44003E-5                                        5.59403E-2
1.08000E3                5.18200E2                5.18200E2                9.52125E-1                                     1.65475E-5                                        4.78586E-2
1.08000E3                5.18400E2                5.18400E2                9.59304E-1                                     1.32473E-5                                        4.06824E-2
1.08000E3                5.18600E2                5.18600E2                9.65166E-1                                     1.08625E-5                                        3.48230E-2
1.08000E3                5.18800E2                5.18800E2                9.69328E-1                                     8.58830E-6                                        3.06635E-2
1.08000E3                5.19000E2                5.19000E2                9.71703E-1                                     6.53261E-6                                        2.82909E-2
1.08000E3                5.19200E2                5.19200E2                9.72525E-1                                     4.91689E-6                                        2.74696E-2
1.08000E3                5.19400E2                5.19400E2                9.72211E-1                                     3.84728E-6                                        2.77854E-2
1.08000E3                5.19600E2                5.19600E2                9.71199E-1                                     3.28238E-6                                        2.87972E-2
1.08000E3                5.19800E2                5.19800E2                9.69858E-1                                     3.08629E-6                                        3.01389E-2
1.08000E3                5.20000E2                5.20000E2                9.68373E-1                                     3.22951E-6                                        3.16240E-2
1.08100E3                5.00000E2                5.00000E2                9.57479E-1                                     8.35688E-7                                        4.25202E-2
1.08100E3                5.00200E2                5.00200E2                9.58677E-1                                     2.63367E-7                                        4.13229E-2
1.08100E3                5.00400E2                5.00400E2                9.60051E-1                                     5.75266E-8                                        3.99492E-2
1.08100E3                5.00600E2                5.00600E2                9.61493E-1                                     8.01519E-8                                        3.85070E-2
1.08100E3                5.00800E2                5.00800E2                9.62873E-1                                     2.39684E-7                                        3.71269E-2
1.08100E3                5.01000E2                5.01000E2                9.64045E-1                                     5.24009E-7                                        3.59547E-2
1.08100E3                5.01200E2                5.01200E2                9.64865E-1                                     1.05743E-6                                        3.51340E-2
1.08100E3                5.01400E2                5.01400E2                9.65206E-1                                     2.26447E-6                                        3.47918E-2
1.08100E3                5.01600E2                5.01600E2                9.64954E-1                                     5.67801E-6                                        3.50400E-2
1.08100E3                5.01800E2                5.01800E2                9.63903E-1                                     2.10601E-5                                        3.60764E-2
1.08100E3                5.02000E2                5.02000E2                9.56727E-1                                     8.35365E-4                                        4.24377E-2
1.08100E3                5.02200E2                5.02200E2                9.63000E-1                                     3.48092E-5                                        3.69654E-2
1.08100E3                5.02400E2                5.02400E2                9.60420E-1                                     4.19677E-6                                        3.95754E-2
1.08100E3                5.02600E2                5.02600E2                9.57962E-1                                     5.11124E-7                                        4.20378E-2
1.08100E3                5.02800E2                5.02800E2                9.55418E-1                                     8.96598E-9                                        4.45816E-2
1.08100E3                5.03000E2                5.03000E2                9.52828E-1                                     4.49162E-7                                        4.71720E-2
1.08100E3                5.03200E2                5.03200E2                9.50256E-1                                     1.27658E-6                                        4.97429E-2
1.08100E3                5.03400E2                5.03400E2                9.47772E-1                                     2.24427E-6                                        5.22259E-2
1.08100E3                5.03600E2                5.03600E2                9.45438E-1                                     3.21952E-6                                        5.45589E-2
1.08100E3                5.03800E2                5.03800E2                9.43322E-1                                     4.11835E-6                                        5.66743E-2
1.08100E3                5.04000E2                5.04000E2                9.41467E-1                                     4.97090E-6                                        5.85285E-2
1.08100E3                5.04200E2                5.04200E2                9.39915E-1                                     5.83262E-6                                        6.00790E-2
1.08100E3                5.04400E2                5.04400E2                9.38691E-1                                     6.80506E-6                                        6.13018E-2
1.08100E3                5.04600E2                5.04600E2                9.37798E-1                                     8.06477E-6                                        6.21941E-2
1.08100E3                5.04800E2                5.04800E2                9.37205E-1                                     1.01063E-5                                        6.27847E-2
1.08100E3                5.05000E2                5.05000E2                9.36780E-1                                     1.56371E-5                                        6.32048E-2
1.08100E3                5.05200E2                5.05200E2                9.34583E-1                                     1.12035E-4                                        6.53049E-2
1.08100E3                5.05400E2                5.05400E2                9.39560E-1                                     2.73342E-5                                        6.04131E-2
1.08100E3                5.05600E2                5.05600E2                9.39799E-1                                     1.15252E-5                                        6.01895E-2
1.08100E3                5.05800E2                5.05800E2                9.40956E-1                                     1.01594E-5                                        5.90340E-2
1.08100E3                5.06000E2                5.06000E2                9.42605E-1                                     9.78267E-6                                        5.73847E-2
1.08100E3                5.06200E2                5.06200E2                9.44665E-1                                     9.54296E-6                                        5.53250E-2
1.08100E3                5.06400E2                5.06400E2                9.47066E-1                                     9.34394E-6                                        5.29247E-2
1.08100E3                5.06600E2                5.06600E2                9.49703E-1                                     9.13163E-6                                        5.02881E-2
1.08100E3                5.06800E2                5.06800E2                9.52420E-1                                     8.82426E-6                                        4.75713E-2
1.08100E3                5.07000E2                5.07000E2                9.55012E-1                                     8.33470E-6                                        4.49792E-2
1.08100E3                5.07200E2                5.07200E2                9.57252E-1                                     7.63255E-6                                        4.27401E-2
1.08100E3                5.07400E2                5.07400E2                9.58931E-1                                     6.76735E-6                                        4.10620E-2
1.08100E3                5.07600E2                5.07600E2                9.59906E-1                                     5.84293E-6                                        4.00883E-2
1.08100E3                5.07800E2                5.07800E2                9.60122E-1                                     4.95797E-6                                        3.98726E-2
1.08100E3                5.08000E2                5.08000E2                9.59617E-1                                     4.15959E-6                                        4.03789E-2
1.08100E3                5.08200E2                5.08200E2                9.58492E-1                                     3.44459E-6                                        4.15045E-2
1.08100E3                5.08400E2                5.08400E2                9.56887E-1                                     2.79488E-6                                        4.31101E-2
1.08100E3                5.08600E2                5.08600E2                9.54951E-1                                     2.20664E-6                                        4.50472E-2
1.08100E3                5.08800E2                5.08800E2                9.52824E-1                                     1.69055E-6                                        4.71743E-2
1.08100E3                5.09000E2                5.09000E2                9.50636E-1                                     1.25651E-6                                        4.93627E-2
1.08100E3                5.09200E2                5.09200E2                9.48501E-1                                     9.07584E-7                                        5.14985E-2
1.08100E3                5.09400E2                5.09400E2                9.46516E-1                                     6.42386E-7                                        5.34837E-2
1.08100E3                5.09600E2                5.09600E2                9.44759E-1                                     4.55171E-7                                        5.52401E-2
1.08100E3                5.09800E2                5.09800E2                9.43286E-1                                     3.36201E-7                                        5.67132E-2
1.08100E3                5.10000E2                5.10000E2                9.42128E-1                                     2.75541E-7                                        5.78717E-2
1.08100E3                5.10200E2                5.10200E2                9.41297E-1                                     2.68846E-7                                        5.87025E-2
1.08100E3                5.10400E2                5.10400E2                9.40801E-1                                     3.23825E-7                                        5.91984E-2
1.08100E3                5.10600E2                5.10600E2                9.40653E-1                                     4.64864E-7                                        5.93465E-2
1.08100E3                5.10800E2                5.10800E2                9.40874E-1                                     7.26634E-7                                        5.91258E-2
1.08100E3                5.11000E2                5.11000E2                9.41474E-1                                     1.12314E-6                                        5.85245E-2
1.08100E3                5.11200E2                5.11200E2                9.42441E-1                                     1.60830E-6                                        5.75571E-2
1.08100E3                5.11400E2                5.11400E2                9.43767E-1                                     2.09568E-6                                        5.62313E-2
1.08100E3                5.11600E2                5.11600E2                9.45491E-1                                     2.53204E-6                                        5.45066E-2