% Model:              cluster_pvk_0_TM_desp_2_SOLVED.mph
% Version:            COMSOL 6.2.0.658
% Date:               Dec 21 2025, 16:18
% Table:              Accumulated Probe Table 13 - 
% h_fib (nm)             lda0 (nm)                lambda0 (nm)             Reflection port 1 (1), Global Variable Probe 1 Transmittance port 2 (1), Global Variable Probe 2 Absorptance total (1), Global Variable Probe 3
1.08000E3                5.00000E2                5.00000E2                9.56561E-1                                     7.92127E-6                                        4.34312E-2
1.08000E3                5.00200E2                5.00200E2                9.57292E-1                                     2.97414E-5                                        4.26786E-2
1.08000E3                5.00400E2                5.00400E2                9.55177E-1                                     4.93775E-4                                        4.43288E-2
1.08000E3                5.00600E2                5.00600E2                9.63169E-1                                     1.93315E-4                                        3.66376E-2
1.08000E3                5.00800E2                5.00800E2                9.63659E-1                                     3.31630E-5                                        3.63075E-2
1.08000E3                5.01000E2                5.01000E2                9.64766E-1                                     1.40979E-5                                        3.52198E-2
1.08000E3                5.01200E2                5.01200E2                9.65693E-1                                     7.79756E-6                                        3.42991E-2
1.08000E3                5.01400E2                5.01400E2                9.66177E-1                                     4.71390E-6                                        3.38182E-2
1.08000E3                5.01600E2                5.01600E2                9.66069E-1                                     2.86041E-6                                        3.39282E-2
1.08000E3                5.01800E2                5.01800E2                9.65307E-1                                     1.64612E-6                                        3.46912E-2
1.08000E3                5.02000E2                5.02000E2                9.63918E-1                                     8.76764E-7                                        3.60814E-2
1.08000E3                5.02200E2                5.02200E2                9.61991E-1                                     5.07829E-7                                        3.80084E-2
1.08000E3                5.02400E2                5.02400E2                9.59654E-1                                     6.33645E-7                                        4.03455E-2
1.08000E3                5.02600E2                5.02600E2                9.57031E-1                                     1.77029E-6                                        4.29675E-2
1.08000E3                5.02800E2                5.02800E2                9.54189E-1                                     6.79313E-6                                        4.58040E-2
1.08000E3                5.03000E2                5.03000E2                9.50850E-1                                     4.78137E-5                                        4.91017E-2
1.08000E3                5.03200E2                5.03200E2                9.51051E-1                                     4.12978E-3                                        4.48191E-2
1.08000E3                5.03400E2                5.03400E2                9.47934E-1                                     6.27671E-5                                        5.20027E-2
1.08000E3                5.03600E2                5.03600E2                9.45346E-1                                     2.27053E-5                                        5.46311E-2
1.08000E3                5.03800E2                5.03800E2                9.43222E-1                                     1.22651E-5                                        5.67656E-2
1.08000E3                5.04000E2                5.04000E2                9.41431E-1                                     7.17757E-6                                        5.85618E-2
1.08000E3                5.04200E2                5.04200E2                9.39962E-1                                     3.93415E-6                                        6.00345E-2
1.08000E3                5.04400E2                5.04400E2                9.38812E-1                                     1.67909E-6                                        6.11860E-2
1.08000E3                5.04600E2                5.04600E2                9.37982E-1                                     3.40575E-7                                        6.20180E-2
1.08000E3                5.04800E2                5.04800E2                9.37458E-1                                     4.25511E-7                                        6.25418E-2
1.08000E3                5.05000E2                5.05000E2                9.37211E-1                                     3.92954E-6                                        6.27846E-2
1.08000E3                5.05200E2                5.05200E2                9.37165E-1                                     1.96318E-5                                        6.28153E-2
1.08000E3                5.05400E2                5.05400E2                9.36960E-1                                     1.13805E-4                                        6.29261E-2
1.08000E3                5.05600E2                5.05600E2                9.24820E-1                                     5.75679E-3                                        6.94236E-2
1.08000E3                5.05800E2                5.05800E2                9.42337E-1                                     5.30683E-4                                        5.71325E-2
1.08000E3                5.06000E2                5.06000E2                9.43183E-1                                     1.33593E-4                                        5.66838E-2
1.08000E3                5.06200E2                5.06200E2                9.44918E-1                                     6.75399E-5                                        5.50141E-2
1.08000E3                5.06400E2                5.06400E2                9.47121E-1                                     4.30254E-5                                        5.28361E-2
1.08000E3                5.06600E2                5.06600E2                9.49618E-1                                     3.02604E-5                                        5.03521E-2
1.08000E3                5.06800E2                5.06800E2                9.52236E-1                                     2.21640E-5                                        4.77421E-2
1.08000E3                5.07000E2                5.07000E2                9.54769E-1                                     1.64233E-5                                        4.52145E-2
1.08000E3                5.07200E2                5.07200E2                9.56992E-1                                     1.21806E-5                                        4.29960E-2
1.08000E3                5.07400E2                5.07400E2                9.58693E-1                                     9.07167E-6                                        4.12974E-2
1.08000E3                5.07600E2                5.07600E2                9.59718E-1                                     6.87025E-6                                        4.02751E-2
1.08000E3                5.07800E2                5.07800E2                9.59993E-1                                     5.37015E-6                                        4.00021E-2
1.08000E3                5.08000E2                5.08000E2                9.59534E-1                                     4.37391E-6                                        4.04613E-2
1.08000E3                5.08200E2                5.08200E2                9.58435E-1                                     3.71059E-6                                        4.15610E-2
1.08000E3                5.08400E2                5.08400E2                9.56835E-1                                     3.24846E-6                                        4.31614E-2
1.08000E3                5.08600E2                5.08600E2                9.54894E-1                                     2.89629E-6                                        4.51029E-2
1.08000E3                5.08800E2                5.08800E2                9.52770E-1                                     2.59687E-6                                        4.72274E-2
1.08000E3                5.09000E2                5.09000E2                9.50606E-1                                     2.31722E-6                                        4.93915E-2
1.08000E3                5.09200E2                5.09200E2                9.48524E-1                                     2.03965E-6                                        5.14735E-2
1.08000E3                5.09400E2                5.09400E2                9.46622E-1                                     1.75734E-6                                        5.33767E-2
1.08000E3                5.09600E2                5.09600E2                9.44967E-1                                     1.47440E-6                                        5.50317E-2
1.08000E3                5.09800E2                5.09800E2                9.43600E-1                                     1.20613E-6                                        5.63987E-2
1.08000E3                5.10000E2                5.10000E2                9.42535E-1                                     9.75282E-7                                        5.74643E-2
1.08000E3                5.10200E2                5.10200E2                9.41765E-1                                     8.04420E-7                                        5.82345E-2
1.08000E3                5.10400E2                5.10400E2                9.41278E-1                                     7.07628E-7                                        5.87214E-2
1.08000E3                5.10600E2                5.10600E2                9.41070E-1                                     6.85108E-7                                        5.89292E-2
1.08000E3                5.10800E2                5.10800E2                9.41156E-1                                     7.23185E-7                                        5.88435E-2
1.08000E3                5.11000E2                5.11000E2                9.41571E-1                                     8.00573E-7                                        5.84281E-2
1.08000E3                5.11200E2                5.11200E2                9.42370E-1                                     8.97954E-7                                        5.76294E-2
1.08000E3                5.11400E2                5.11400E2                9.43611E-1                                     1.00482E-6                                        5.63879E-2
1.08000E3                5.11600E2                5.11600E2                9.45341E-1                                     1.12022E-6                                        5.46582E-2
1.08000E3                5.11800E2                5.11800E2                9.47564E-1                                     1.24956E-6                                        5.24350E-2
1.08000E3                5.12000E2                5.12000E2                9.50217E-1                                     1.40184E-6                                        4.97820E-2
1.08000E3                5.12200E2                5.12200E2                9.53143E-1                                     1.58885E-6                                        4.68553E-2
1.08000E3                5.12400E2                5.12400E2                9.56093E-1                                     1.82430E-6                                        4.39052E-2
1.08000E3                5.12600E2                5.12600E2                9.58752E-1                                     2.12063E-6                                        4.12456E-2
1.08000E3                5.12800E2                5.12800E2                9.60809E-1                                     2.48613E-6                                        3.91880E-2
1.08000E3                5.13000E2                5.13000E2                9.62033E-1                                     2.92566E-6                                        3.79643E-2
1.08000E3                5.13200E2                5.13200E2                9.62325E-1                                     3.44242E-6                                        3.76719E-2
1.08000E3                5.13400E2                5.13400E2                9.61730E-1                                     4.03291E-6                                        3.82662E-2
1.08000E3                5.13600E2                5.13600E2                9.60401E-1                                     4.67045E-6                                        3.95938E-2
1.08000E3                5.13800E2                5.13800E2                9.58553E-1                                     5.28546E-6                                        4.14416E-2
1.08000E3                5.14000E2                5.14000E2                9.56417E-1                                     5.76671E-6                                        4.35770E-2
1.08000E3                5.14200E2                5.14200E2                9.54220E-1                                     6.00387E-6                                        4.57742E-2
1.08000E3                5.14400E2                5.14400E2                9.52165E-1                                     5.94891E-6                                        4.78291E-2
1.08000E3                5.14600E2                5.14600E2                9.50420E-1                                     5.63955E-6                                        4.95742E-2
1.08000E3                5.14800E2                5.14800E2                9.49091E-1                                     5.16708E-6                                        5.09041E-2
1.08000E3                5.15000E2                5.15000E2                9.48183E-1                                     4.62997E-6                                        5.18122E-2
1.08000E3                5.15200E2                5.15200E2                9.47575E-1                                     4.11046E-6                                        5.24207E-2
1.08000E3                5.15400E2                5.15400E2                9.47029E-1                                     3.67176E-6                                        5.29669E-2
1.08000E3                5.15600E2                5.15600E2                9.46270E-1                                     3.35803E-6                                        5.37270E-2
1.08000E3                5.15800E2                5.15800E2                9.45089E-1                                     3.19108E-6                                        5.49081E-2
1.08000E3                5.16000E2                5.16000E2                9.43420E-1                                     3.16944E-6                                        5.65766E-2
1.08000E3                5.16200E2                5.16200E2                9.41343E-1                                     3.27385E-6                                        5.86539E-2
1.08000E3                5.16400E2                5.16400E2                9.39038E-1                                     3.47403E-6                                        6.09586E-2
1.08000E3                5.16600E2                5.16600E2                9.36748E-1                                     3.73023E-6                                        6.32487E-2
1.08000E3                5.16800E2                5.16800E2                9.34750E-1                                     3.99352E-6                                        6.52458E-2
1.08000E3                5.17000E2                5.17000E2                9.33355E-1                                     4.21633E-6                                        6.66404E-2
1.08000E3                5.17200E2                5.17200E2                9.32898E-1                                     4.37145E-6                                        6.70977E-2
1.08000E3                5.17400E2                5.17400E2                9.33715E-1                                     4.45420E-6                                        6.62803E-2
1.08000E3                5.17600E2                5.17600E2                9.36089E-1                                     4.46037E-6                                        6.39064E-2
1.08000E3                5.17800E2                5.17800E2                9.40145E-1                                     4.37548E-6                                        5.98511E-2
1.08000E3                5.18000E2                5.18000E2                9.45717E-1                                     4.19456E-6                                        5.42791E-2
1.08000E3                5.18200E2                5.18200E2                9.52254E-1                                     3.94027E-6                                        4.77418E-2
1.08000E3                5.18400E2                5.18400E2                9.58880E-1                                     3.64831E-6                                        4.11168E-2
1.08000E3                5.18600E2                5.18600E2                9.64652E-1                                     3.33391E-6                                        3.53446E-2
1.08000E3                5.18800E2                5.18800E2                9.68899E-1                                     2.97713E-6                                        3.10978E-2
1.08000E3                5.19000E2                5.19000E2                9.71398E-1                                     2.54336E-6                                        2.85999E-2
1.08000E3                5.19200E2                5.19200E2                9.72328E-1                                     2.02365E-6                                        2.76699E-2
1.08000E3                5.19400E2                5.19400E2                9.72100E-1                                     1.47229E-6                                        2.78984E-2
1.08000E3                5.19600E2                5.19600E2                9.71169E-1                                     1.00015E-6                                        2.88297E-2
1.08000E3                5.19800E2                5.19800E2                9.69907E-1                                     6.97296E-7                                        3.00920E-2
1.08000E3                5.20000E2                5.20000E2                9.68535E-1                                     5.83978E-7                                        3.14647E-2
1.08100E3                5.00000E2                5.00000E2                9.56754E-1                                     3.75510E-6                                        4.32419E-2
1.08100E3                5.00200E2                5.00200E2                9.57744E-1                                     1.03703E-5                                        4.22451E-2
1.08100E3                5.00400E2                5.00400E2                9.58588E-1                                     4.37708E-5                                        4.13683E-2
1.08100E3                5.00600E2                5.00600E2                9.49437E-1                                     2.48451E-3                                        4.80780E-2
1.08100E3                5.00800E2                5.00800E2                9.64281E-1                                     1.18843E-4                                        3.56003E-2
1.08100E3                5.01000E2                5.01000E2                9.64978E-1                                     2.75306E-5                                        3.49947E-2
1.08100E3                5.01200E2                5.01200E2                9.65823E-1                                     1.23638E-5                                        3.41651E-2
1.08100E3                5.01400E2                5.01400E2                9.66282E-1                                     6.80352E-6                                        3.37107E-2
1.08100E3                5.01600E2                5.01600E2                9.66165E-1                                     3.97910E-6                                        3.38308E-2
1.08100E3                5.01800E2                5.01800E2                9.65399E-1                                     2.31595E-6                                        3.45991E-2
1.08100E3                5.02000E2                5.02000E2                9.64003E-1                                     1.30488E-6                                        3.59961E-2
1.08100E3                5.02200E2                5.02200E2                9.62070E-1                                     7.53781E-7                                        3.79290E-2
1.08100E3                5.02400E2                5.02400E2                9.59732E-1                                     5.82969E-7                                        4.02671E-2
1.08100E3                5.02600E2                5.02600E2                9.57125E-1                                     8.69807E-7                                        4.28739E-2
1.08100E3                5.02800E2                5.02800E2                9.54358E-1                                     2.28194E-6                                        4.56394E-2
1.08100E3                5.03000E2                5.03000E2                9.51456E-1                                     9.17628E-6                                        4.85349E-2
1.08100E3                5.03200E2                5.03200E2                9.47861E-1                                     8.67237E-5                                        5.20527E-2
1.08100E3                5.03400E2                5.03400E2                9.49396E-1                                     7.17580E-4                                        4.98861E-2
1.08100E3                5.03600E2                5.03600E2                9.45595E-1                                     5.25322E-5                                        5.43523E-2
1.08100E3                5.03800E2                5.03800E2                9.43312E-1                                     2.06812E-5                                        5.66674E-2
1.08100E3                5.04000E2                5.04000E2                9.41477E-1                                     1.09482E-5                                        5.85122E-2
1.08100E3                5.04200E2                5.04200E2                9.39992E-1                                     6.05532E-6                                        6.00016E-2
1.08100E3                5.04400E2                5.04400E2                9.38845E-1                                     3.03103E-6                                        6.11523E-2
1.08100E3                5.04600E2                5.04600E2                9.38026E-1                                     1.09208E-6                                        6.19732E-2
1.08100E3                5.04800E2                5.04800E2                9.37526E-1                                     1.92247E-7                                        6.24734E-2
1.08100E3                5.05000E2                5.05000E2                9.37330E-1                                     1.00413E-6                                        6.26694E-2
1.08100E3                5.05200E2                5.05200E2                9.37404E-1                                     6.24829E-6                                        6.25901E-2
1.08100E3                5.05400E2                5.05400E2                9.37658E-1                                     2.87170E-5                                        6.23129E-2
1.08100E3                5.05600E2                5.05600E2                9.37583E-1                                     1.83009E-4                                        6.22337E-2
1.08100E3                5.05800E2                5.05800E2                6.37189E-1                                     2.48339E-1                                        1.14472E-1
1.08100E3                5.06000E2                5.06000E2                9.43661E-1                                     3.89660E-4                                        5.59492E-2
1.08100E3                5.06200E2                5.06200E2                9.45090E-1                                     1.19278E-4                                        5.47906E-2
1.08100E3                5.06400E2                5.06400E2                9.47207E-1                                     6.25710E-5                                        5.27305E-2
1.08100E3                5.06600E2                5.06600E2                9.49672E-1                                     3.96147E-5                                        5.02888E-2
1.08100E3                5.06800E2                5.06800E2                9.52277E-1                                     2.72080E-5                                        4.76961E-2
1.08100E3                5.07000E2                5.07000E2                9.54806E-1                                     1.94529E-5                                        4.51750E-2
1.08100E3                5.07200E2                5.07200E2                9.57028E-1                                     1.42868E-5                                        4.29573E-2
1.08100E3                5.07400E2                5.07400E2                9.58732E-1                                     1.07742E-5                                        4.12571E-2
1.08100E3                5.07600E2                5.07600E2                9.59759E-1                                     8.37218E-6                                        4.02323E-2
1.08100E3                5.07800E2                5.07800E2                9.60036E-1                                     6.71513E-6                                        3.99572E-2
1.08100E3                5.08000E2                5.08000E2                9.59578E-1                                     5.54745E-6                                        4.04160E-2
1.08100E3                5.08200E2                5.08200E2                9.58478E-1                                     4.69357E-6                                        4.15174E-2
1.08100E3                5.08400E2                5.08400E2                9.56874E-1                                     4.03682E-6                                        4.31223E-2
1.08100E3                5.08600E2                5.08600E2                9.54925E-1                                     3.50183E-6                                        4.50713E-2
1.08100E3                5.08800E2                5.08800E2                9.52791E-1                                     3.03961E-6                                        4.72064E-2
1.08100E3                5.09000E2                5.09000E2                9.50614E-1                                     2.61726E-6                                        4.93834E-2
1.08100E3                5.09200E2                5.09200E2                9.48519E-1                                     2.21452E-6                                        5.14786E-2
1.08100E3                5.09400E2                5.09400E2                9.46605E-1                                     1.82590E-6                                        5.33928E-2
1.08100E3                5.09600E2                5.09600E2                9.44944E-1                                     1.46358E-6                                        5.50540E-2
1.08100E3                5.09800E2                5.09800E2                9.43578E-1                                     1.15535E-6                                        5.64209E-2
1.08100E3                5.10000E2                5.10000E2                9.42519E-1                                     9.34285E-7                                        5.74804E-2
1.08100E3                5.10200E2                5.10200E2                9.41758E-1                                     8.21993E-7                                        5.82410E-2
1.08100E3                5.10400E2                5.10400E2                9.41281E-1                                     8.14045E-7                                        5.87183E-2
1.08100E3                5.10600E2                5.10600E2                9.41080E-1                                     8.79039E-7                                        5.89194E-2
1.08100E3                5.10800E2                5.10800E2                9.41168E-1                                     9.73942E-7                                        5.88313E-2
1.08100E3                5.11000E2                5.11000E2                9.41581E-1                                     1.06381E-6                                        5.84176E-2
1.08100E3                5.11200E2                5.11200E2                9.42376E-1                                     1.13184E-6                                        5.76227E-2
1.08100E3                5.11400E2                5.11400E2                9.43614E-1                                     1.17787E-6                                        5.63851E-2
1.08100E3                5.11600E2                5.11600E2                9.45342E-1                                     1.21276E-6                                        5.46571E-2