% Model:              cluster_pvk_2_TM_desp_0_SOLVED.mph
% Version:            COMSOL 6.2.0.658
% Date:               Dec 10 2025, 14:09
% Table:              Accumulated Probe Table 13 - 
% h_fib (nm)             lda0 (nm)                lambda0 (nm)             Reflection port 1 (1), Global Variable Probe 1 Transmittance port 2 (1), Global Variable Probe 2 Absorptance total (1), Global Variable Probe 3
1.06800E3                5.10750E2                5.10750E2                9.38202E-1                                     1.90830E-6                                        6.17959E-2
1.06800E3                5.11000E2                5.11000E2                9.38475E-1                                     1.76008E-6                                        6.15234E-2
1.06800E3                5.11250E2                5.11250E2                9.39263E-1                                     1.71312E-6                                        6.07354E-2
1.06800E3                5.11500E2                5.11500E2                9.40689E-1                                     1.75114E-6                                        5.93096E-2
1.06800E3                5.11750E2                5.11750E2                9.42847E-1                                     1.85083E-6                                        5.71507E-2
1.06800E3                5.12000E2                5.12000E2                9.45720E-1                                     1.98044E-6                                        5.42775E-2
1.06800E3                5.12250E2                5.12250E2                9.49061E-1                                     2.10140E-6                                        5.09372E-2
1.06800E3                5.12500E2                5.12500E2                9.52371E-1                                     2.17205E-6                                        4.76267E-2
1.06800E3                5.12750E2                5.12750E2                9.55101E-1                                     2.16363E-6                                        4.48971E-2
1.06800E3                5.13000E2                5.13000E2                9.56755E-1                                     2.07801E-6                                        4.32425E-2
1.06800E3                5.13250E2                5.13250E2                9.57109E-1                                     1.94603E-6                                        4.28895E-2
1.06800E3                5.13500E2                5.13500E2                9.56238E-1                                     1.81358E-6                                        4.37605E-2
1.06800E3                5.13750E2                5.13750E2                9.54428E-1                                     1.72332E-6                                        4.55698E-2
1.06800E3                5.14000E2                5.14000E2                9.52000E-1                                     1.67781E-6                                        4.79988E-2
1.06800E3                5.14250E2                5.14250E2                9.49390E-1                                     1.69488E-6                                        5.06087E-2
1.06800E3                5.14500E2                5.14500E2                9.46920E-1                                     1.76229E-6                                        5.30780E-2
1.06800E3                5.14750E2                5.14750E2                9.44841E-1                                     1.85157E-6                                        5.51574E-2
1.06800E3                5.15000E2                5.15000E2                9.43280E-1                                     1.92348E-6                                        5.67184E-2
1.06800E3                5.15250E2                5.15250E2                9.42193E-1                                     1.93841E-6                                        5.78046E-2
1.06800E3                5.15500E2                5.15500E2                9.41447E-1                                     1.82992E-6                                        5.85514E-2
1.06800E3                5.15750E2                5.15750E2                9.40767E-1                                     1.61683E-6                                        5.92316E-2
1.06800E3                5.16000E2                5.16000E2                9.39889E-1                                     1.35494E-6                                        6.01101E-2
1.06800E3                5.16250E2                5.16250E2                9.38708E-1                                     1.09024E-6                                        6.12911E-2
1.06800E3                5.16500E2                5.16500E2                9.37304E-1                                     8.57435E-7                                        6.26948E-2
1.06800E3                5.16750E2                5.16750E2                9.35969E-1                                     6.70049E-7                                        6.40305E-2
1.06800E3                5.17000E2                5.17000E2                9.35191E-1                                     5.32246E-7                                        6.48086E-2
1.06800E3                5.17250E2                5.17250E2                9.35585E-1                                     4.56372E-7                                        6.44150E-2
1.06800E3                5.17500E2                5.17500E2                9.37739E-1                                     4.61469E-7                                        6.22607E-2
1.06800E3                5.17750E2                5.17750E2                9.41910E-1                                     5.69179E-7                                        5.80897E-2
1.06800E3                5.18000E2                5.18000E2                9.47770E-1                                     7.85041E-7                                        5.22290E-2
1.06800E3                5.18250E2                5.18250E2                9.54368E-1                                     1.08862E-6                                        4.56308E-2
1.06800E3                5.18500E2                5.18500E2                9.60460E-1                                     1.44199E-6                                        3.95386E-2
1.06800E3                5.18750E2                5.18750E2                9.65028E-1                                     1.80397E-6                                        3.49701E-2
1.06800E3                5.19000E2                5.19000E2                9.67674E-1                                     2.12691E-6                                        3.23235E-2
1.06800E3                5.19250E2                5.19250E2                9.68542E-1                                     2.38306E-6                                        3.14556E-2
1.06800E3                5.19500E2                5.19500E2                9.68106E-1                                     2.59694E-6                                        3.18912E-2
1.06800E3                5.19750E2                5.19750E2                9.66933E-1                                     2.72333E-6                                        3.30647E-2
1.06800E3                5.20000E2                5.20000E2                9.65435E-1                                     2.75899E-6                                        3.45618E-2
1.06800E3                5.20250E2                5.20250E2                9.63756E-1                                     2.72257E-6                                        3.62414E-2
1.06800E3                5.20500E2                5.20500E2                9.61723E-1                                     2.61015E-6                                        3.82748E-2
1.06800E3                5.20750E2                5.20750E2                9.58932E-1                                     2.44301E-6                                        4.10655E-2
1.06800E3                5.21000E2                5.21000E2                9.54991E-1                                     2.33985E-6                                        4.50067E-2
1.06800E3                5.21250E2                5.21250E2                9.49782E-1                                     2.58809E-6                                        5.02154E-2
1.06800E3                5.21500E2                5.21500E2                9.43582E-1                                     3.72429E-6                                        5.64142E-2
1.06800E3                5.21750E2                5.21750E2                9.37070E-1                                     6.71758E-6                                        6.29232E-2
1.06800E3                5.22000E2                5.22000E2                9.31281E-1                                     1.34520E-5                                        6.87053E-2
1.06800E3                5.22250E2                5.22250E2                9.27078E-1                                     2.78541E-5                                        7.28939E-2
1.06800E3                5.22500E2                5.22500E2                9.21975E-1                                     5.51539E-5                                        7.79703E-2
1.06800E3                5.22750E2                5.22750E2                9.19676E-1                                     9.34554E-5                                        8.02307E-2
1.06800E3                5.23000E2                5.23000E2                9.27917E-1                                     1.02822E-4                                        7.19802E-2
1.06800E3                5.23250E2                5.23250E2                9.36419E-1                                     1.14342E-4                                        6.34662E-2
1.06800E3                5.23500E2                5.23500E2                9.27771E-1                                     1.60114E-4                                        7.20694E-2
1.06800E3                5.23750E2                5.23750E2                9.35431E-1                                     4.21867E-5                                        6.45271E-2
1.06800E3                5.24000E2                5.24000E2                9.61089E-1                                     1.35691E-5                                        3.88978E-2
1.06800E3                5.24250E2                5.24250E2                9.70233E-1                                     1.13941E-5                                        2.97557E-2
1.06800E3                5.24500E2                5.24500E2                9.74203E-1                                     9.50101E-6                                        2.57871E-2
1.06800E3                5.24750E2                5.24750E2                9.76070E-1                                     7.17669E-6                                        2.39233E-2
1.06800E3                5.25000E2                5.25000E2                9.77075E-1                                     4.91773E-6                                        2.29196E-2
1.06800E3                5.25250E2                5.25250E2                9.77442E-1                                     3.24521E-6                                        2.25547E-2
1.06800E3                5.25500E2                5.25500E2                9.76365E-1                                     2.63770E-6                                        2.36321E-2
1.06800E3                5.25750E2                5.25750E2                9.72575E-1                                     3.30551E-6                                        2.74214E-2
1.06800E3                5.26000E2                5.26000E2                9.65512E-1                                     5.01568E-6                                        3.44832E-2
1.06800E3                5.26250E2                5.26250E2                9.55767E-1                                     7.24973E-6                                        4.42261E-2
1.06800E3                5.26500E2                5.26500E2                9.44392E-1                                     9.32157E-6                                        5.55991E-2
1.06800E3                5.26750E2                5.26750E2                9.31060E-1                                     1.19422E-5                                        6.89280E-2
1.06800E3                5.27000E2                5.27000E2                9.17212E-1                                     1.64081E-5                                        8.27717E-2
1.06800E3                5.27250E2                5.27250E2                9.05253E-1                                     1.78262E-5                                        9.47291E-2
1.06800E3                5.27500E2                5.27500E2                8.85554E-1                                     4.17439E-6                                        1.14442E-1
1.06800E3                5.27750E2                5.27750E2                8.92684E-1                                     3.59695E-5                                        1.07280E-1
1.06800E3                5.28000E2                5.28000E2                8.97332E-1                                     3.21585E-5                                        1.02636E-1
1.06800E3                5.28250E2                5.28250E2                9.08645E-1                                     2.31810E-5                                        9.13314E-2
1.06800E3                5.28500E2                5.28500E2                9.25558E-1                                     1.57298E-5                                        7.44258E-2
1.06800E3                5.28750E2                5.28750E2                9.42640E-1                                     8.70362E-6                                        5.73514E-2
1.06800E3                5.29000E2                5.29000E2                9.56633E-1                                     3.49020E-6                                        4.33634E-2
1.06800E3                5.29250E2                5.29250E2                9.65907E-1                                     1.03303E-6                                        3.40923E-2
1.06800E3                5.29500E2                5.29500E2                9.70567E-1                                     1.10247E-6                                        2.94321E-2
1.06800E3                5.29750E2                5.29750E2                9.71411E-1                                     3.12511E-6                                        2.85863E-2
1.06800E3                5.30000E2                5.30000E2                9.68789E-1                                     7.11909E-6                                        3.12040E-2
1.06900E3                5.00000E2                5.00000E2                9.50610E-1                                     1.47835E-6                                        4.93889E-2
1.06900E3                5.00250E2                5.00250E2                9.52168E-1                                     1.89527E-6                                        4.78297E-2
1.06900E3                5.00500E2                5.00500E2                9.54183E-1                                     2.47146E-6                                        4.58146E-2
1.06900E3                5.00750E2                5.00750E2                9.56637E-1                                     3.21251E-6                                        4.33598E-2
1.06900E3                5.01000E2                5.01000E2                9.59280E-1                                     4.05198E-6                                        4.07159E-2
1.06900E3                5.01250E2                5.01250E2                9.61661E-1                                     4.87762E-6                                        3.83346E-2
1.06900E3                5.01500E2                5.01500E2                9.63310E-1                                     5.62657E-6                                        3.66847E-2
1.06900E3                5.01750E2                5.01750E2                9.63906E-1                                     6.24066E-6                                        3.60874E-2
1.06900E3                5.02000E2                5.02000E2                9.63324E-1                                     6.66127E-6                                        3.66690E-2
1.06900E3                5.02250E2                5.02250E2                9.61627E-1                                     6.83959E-6                                        3.83662E-2
1.06900E3                5.02500E2                5.02500E2                9.59020E-1                                     6.76424E-6                                        4.09728E-2
1.06900E3                5.02750E2                5.02750E2                9.55783E-1                                     6.46574E-6                                        4.42109E-2
1.06900E3                5.03000E2                5.03000E2                9.52198E-1                                     6.02546E-6                                        4.77955E-2
1.06900E3                5.03250E2                5.03250E2                9.48511E-1                                     5.53280E-6                                        5.14832E-2
1.06900E3                5.03500E2                5.03500E2                9.44910E-1                                     5.05621E-6                                        5.50851E-2
1.06900E3                5.03750E2                5.03750E2                9.41544E-1                                     4.64265E-6                                        5.84515E-2
1.06900E3                5.04000E2                5.04000E2                9.38546E-1                                     4.31734E-6                                        6.14493E-2
1.06900E3                5.04250E2                5.04250E2                9.36046E-1                                     4.08473E-6                                        6.39499E-2
1.06900E3                5.04500E2                5.04500E2                9.34158E-1                                     3.93333E-6                                        6.58378E-2
1.06900E3                5.04750E2                5.04750E2                9.32919E-1                                     3.88872E-6                                        6.70772E-2
1.06900E3                5.05000E2                5.05000E2                9.32327E-1                                     3.94975E-6                                        6.76690E-2
1.06900E3                5.05250E2                5.05250E2                9.32360E-1                                     4.10232E-6                                        6.76357E-2
1.06900E3                5.05500E2                5.05500E2                9.33007E-1                                     4.32028E-6                                        6.69887E-2
1.06900E3                5.05750E2                5.05750E2                9.34283E-1                                     4.57168E-6                                        6.57123E-2
1.06900E3                5.06000E2                5.06000E2                9.36227E-1                                     4.81237E-6                                        6.37683E-2
1.06900E3                5.06250E2                5.06250E2                9.38841E-1                                     5.03082E-6                                        6.11544E-2
1.06900E3                5.06500E2                5.06500E2                9.42062E-1                                     5.21691E-6                                        5.79331E-2
1.06900E3                5.06750E2                5.06750E2                9.45699E-1                                     5.37060E-6                                        5.42958E-2
1.06900E3                5.07000E2                5.07000E2                9.49405E-1                                     5.50069E-6                                        5.05893E-2
1.06900E3                5.07250E2                5.07250E2                9.52720E-1                                     5.61680E-6                                        4.72744E-2
1.06900E3                5.07500E2                5.07500E2                9.55175E-1                                     5.72137E-6                                        4.48197E-2
1.06900E3                5.07750E2                5.07750E2                9.56454E-1                                     5.80609E-6                                        4.35406E-2
1.06900E3                5.08000E2                5.08000E2                9.56485E-1                                     5.84812E-6                                        4.35096E-2
1.06900E3                5.08250E2                5.08250E2                9.55400E-1                                     5.81990E-6                                        4.45944E-2
1.06900E3                5.08500E2                5.08500E2                9.53469E-1                                     5.69687E-6                                        4.65250E-2
1.06900E3                5.08750E2                5.08750E2                9.51013E-1                                     5.46307E-6                                        4.89814E-2
1.06900E3                5.09000E2                5.09000E2                9.48341E-1                                     5.11744E-6                                        5.16542E-2
1.06900E3                5.09250E2                5.09250E2                9.45733E-1                                     4.68415E-6                                        5.42621E-2
1.06900E3                5.09500E2                5.09500E2                9.43398E-1                                     4.16810E-6                                        5.65978E-2
1.06900E3                5.09750E2                5.09750E2                9.41471E-1                                     3.61199E-6                                        5.85255E-2
1.06900E3                5.10000E2                5.10000E2                9.40011E-1                                     3.06714E-6                                        5.99857E-2
1.06900E3                5.10250E2                5.10250E2                9.39012E-1                                     2.58313E-6                                        6.09856E-2
1.06900E3                5.10500E2                5.10500E2                9.38434E-1                                     2.19687E-6                                        6.15639E-2
1.06900E3                5.10750E2                5.10750E2                9.38281E-1                                     1.93590E-6                                        6.17169E-2
1.06900E3                5.11000E2                5.11000E2                9.38564E-1                                     1.79096E-6                                        6.14341E-2
1.06900E3                5.11250E2                5.11250E2                9.39364E-1                                     1.75004E-6                                        6.06342E-2
1.06900E3                5.11500E2                5.11500E2                9.40803E-1                                     1.79731E-6                                        5.91949E-2
1.06900E3                5.11750E2                5.11750E2                9.42977E-1                                     1.90995E-6                                        5.70212E-2
1.06900E3                5.12000E2                5.12000E2                9.45864E-1                                     2.05629E-6                                        5.41336E-2
1.06900E3                5.12250E2                5.12250E2                9.49217E-1                                     2.19726E-6                                        5.07808E-2
1.06900E3                5.12500E2                5.12500E2                9.52534E-1                                     2.29012E-6                                        4.74633E-2
1.06900E3                5.12750E2                5.12750E2                9.55259E-1                                     2.30483E-6                                        4.47386E-2
1.06900E3                5.13000E2                5.13000E2                9.56896E-1                                     2.24172E-6                                        4.31015E-2
1.06900E3                5.13250E2                5.13250E2                9.57224E-1                                     2.12982E-6                                        4.27736E-2
1.06900E3                5.13500E2                5.13500E2                9.56328E-1                                     2.01281E-6                                        4.36702E-2
1.06900E3                5.13750E2                5.13750E2                9.54499E-1                                     1.93085E-6                                        4.54995E-2
1.06900E3                5.14000E2                5.14000E2                9.52055E-1                                     1.88664E-6                                        4.79427E-2
1.06900E3                5.14250E2                5.14250E2                9.49435E-1                                     1.89596E-6                                        5.05634E-2
1.06900E3                5.14500E2                5.14500E2                9.46953E-1                                     1.94693E-6                                        5.30449E-2
1.06900E3                5.14750E2                5.14750E2                9.44854E-1                                     2.01360E-6                                        5.51435E-2
1.06900E3                5.15000E2                5.15000E2                9.43261E-1                                     2.06169E-6                                        5.67368E-2
1.06900E3                5.15250E2                5.15250E2                9.42121E-1                                     2.05829E-6                                        5.78771E-2
1.06900E3                5.15500E2                5.15500E2                9.41279E-1                                     1.94075E-6                                        5.87189E-2
1.06900E3                5.15750E2                5.15750E2                9.40474E-1                                     1.72648E-6                                        5.95239E-2
1.06900E3                5.16000E2                5.16000E2                9.39483E-1                                     1.46514E-6                                        6.05157E-2
1.06900E3                5.16250E2                5.16250E2                9.38245E-1                                     1.19522E-6                                        6.17536E-2
1.06900E3                5.16500E2                5.16500E2                9.36859E-1                                     9.50762E-7                                        6.31404E-2
1.06900E3                5.16750E2                5.16750E2                9.35591E-1                                     7.49847E-7                                        6.44078E-2
1.06900E3                5.17000E2                5.17000E2                9.34892E-1                                     5.98369E-7                                        6.51077E-2
1.06900E3                5.17250E2                5.17250E2                9.35342E-1                                     5.06690E-7                                        6.46579E-2
1.06900E3                5.17500E2                5.17500E2                9.37527E-1                                     4.91794E-7                                        6.24727E-2
1.06900E3                5.17750E2                5.17750E2                9.41722E-1                                     5.75900E-7                                        5.82771E-2
1.06900E3                5.18000E2                5.18000E2                9.47617E-1                                     7.68022E-7                                        5.23827E-2
1.06900E3                5.18250E2                5.18250E2                9.54260E-1                                     1.05108E-6                                        4.57387E-2
1.06900E3                5.18500E2                5.18500E2                9.60400E-1                                     1.38844E-6                                        3.95990E-2
1.06900E3                5.18750E2                5.18750E2                9.65004E-1                                     1.74105E-6                                        3.49943E-2
1.06900E3                5.19000E2                5.19000E2                9.67676E-1                                     2.07099E-6                                        3.23219E-2
1.06900E3                5.19250E2                5.19250E2                9.68570E-1                                     2.32021E-6                                        3.14275E-2
1.06900E3                5.19500E2                5.19500E2                9.68156E-1                                     2.52232E-6                                        3.18419E-2
1.06900E3                5.19750E2                5.19750E2                9.67001E-1                                     2.66273E-6                                        3.29967E-2
1.06900E3                5.20000E2                5.20000E2                9.65521E-1                                     2.69356E-6                                        3.44766E-2
1.06900E3                5.20250E2                5.20250E2                9.63857E-1                                     2.64245E-6                                        3.61407E-2