% Model:              cluster_pvk_0_TE_desp_2_SOLVED.mph
% Version:            COMSOL 6.2.0.658
% Date:               Dec 21 2025, 16:06
% Table:              Accumulated Probe Table 13 - 
% h_fib (nm)             lda0 (nm)                lambda0 (nm)             Reflection port 1 (1), Global Variable Probe 1 Transmittance port 2 (1), Global Variable Probe 2 Absorptance total (1), Global Variable Probe 3
1.08000E3                5.00000E2                5.00000E2                9.99879E-1                                     1.05311E-5                                        1.10044E-4
1.08000E3                5.00200E2                5.00200E2                9.99875E-1                                     1.24031E-5                                        1.12782E-4
1.08000E3                5.00400E2                5.00400E2                9.99869E-1                                     1.48723E-5                                        1.15663E-4
1.08000E3                5.00600E2                5.00600E2                9.99860E-1                                     1.84785E-5                                        1.21414E-4
1.08000E3                5.00800E2                5.00800E2                9.99842E-1                                     2.45156E-5                                        1.33587E-4
1.08000E3                5.01000E2                5.01000E2                9.99796E-1                                     3.72783E-5                                        1.66977E-4
1.08000E3                5.01200E2                5.01200E2                9.99598E-1                                     8.20533E-5                                        3.19450E-4
1.08000E3                5.01400E2                5.01400E2                9.85905E-1                                     2.45635E-3                                        1.16383E-2
1.08000E3                5.01600E2                5.01600E2                9.99602E-1                                     2.38899E-5                                        3.73690E-4
1.08000E3                5.01800E2                5.01800E2                9.99876E-1                                     8.94907E-8                                        1.24320E-4
1.08000E3                5.02000E2                5.02000E2                9.99912E-1                                     1.45683E-6                                        8.66145E-5
1.08000E3                5.02200E2                5.02200E2                9.99923E-1                                     4.19524E-6                                        7.30303E-5
1.08000E3                5.02400E2                5.02400E2                9.99927E-1                                     7.03792E-6                                        6.56206E-5
1.08000E3                5.02600E2                5.02600E2                9.99929E-1                                     9.98740E-6                                        6.05594E-5
1.08000E3                5.02800E2                5.02800E2                9.99930E-1                                     1.31967E-5                                        5.67165E-5
1.08000E3                5.03000E2                5.03000E2                9.99929E-1                                     1.68607E-5                                        5.39778E-5
1.08000E3                5.03200E2                5.03200E2                9.99927E-1                                     2.12245E-5                                        5.18420E-5
1.08000E3                5.03400E2                5.03400E2                9.99923E-1                                     2.66224E-5                                        5.07432E-5
1.08000E3                5.03600E2                5.03600E2                9.99915E-1                                     3.35381E-5                                        5.15125E-5
1.08000E3                5.03800E2                5.03800E2                9.99904E-1                                     4.28124E-5                                        5.31977E-5
1.08000E3                5.04000E2                5.04000E2                9.99892E-1                                     5.55593E-5                                        5.28995E-5
1.08000E3                5.04200E2                5.04200E2                9.99870E-1                                     7.40926E-5                                        5.59401E-5
1.08000E3                5.04400E2                5.04400E2                9.99837E-1                                     1.02594E-4                                        6.05520E-5
1.08000E3                5.04600E2                5.04600E2                9.99783E-1                                     1.49862E-4                                        6.73668E-5
1.08000E3                5.04800E2                5.04800E2                9.99685E-1                                     2.36986E-4                                        7.84147E-5
1.08000E3                5.05000E2                5.05000E2                9.99474E-1                                     4.25616E-4                                        1.00607E-4
1.08000E3                5.05200E2                5.05200E2                9.98869E-1                                     9.65951E-4                                        1.64898E-4
1.08000E3                5.05400E2                5.05400E2                9.95573E-1                                     3.88655E-3                                        5.40243E-4
1.08000E3                5.05600E2                5.05600E2                3.53986E-1                                     5.63814E-1                                        8.21999E-2
1.08000E3                5.05800E2                5.05800E2                9.95398E-1                                     3.86361E-3                                        7.38117E-4
1.08000E3                5.06000E2                5.06000E2                9.98755E-1                                     9.78855E-4                                        2.66394E-4
1.08000E3                5.06200E2                5.06200E2                9.99394E-1                                     4.37577E-4                                        1.67948E-4
1.08000E3                5.06400E2                5.06400E2                9.99624E-1                                     2.47127E-4                                        1.28508E-4
1.08000E3                5.06600E2                5.06600E2                9.99734E-1                                     1.58664E-4                                        1.07090E-4
1.08000E3                5.06800E2                5.06800E2                9.99796E-1                                     1.10476E-4                                        9.31640E-5
1.08000E3                5.07000E2                5.07000E2                9.99836E-1                                     8.13513E-5                                        8.29871E-5
1.08000E3                5.07200E2                5.07200E2                9.99863E-1                                     6.24084E-5                                        7.49543E-5
1.08000E3                5.07400E2                5.07400E2                9.99882E-1                                     4.93967E-5                                        6.82881E-5
1.08000E3                5.07600E2                5.07600E2                9.99897E-1                                     4.00738E-5                                        6.25789E-5
1.08000E3                5.07800E2                5.07800E2                9.99909E-1                                     3.31658E-5                                        5.76002E-5
1.08000E3                5.08000E2                5.08000E2                9.99919E-1                                     2.79054E-5                                        5.32300E-5
1.08000E3                5.08200E2                5.08200E2                9.99927E-1                                     2.38080E-5                                        4.94160E-5
1.08000E3                5.08400E2                5.08400E2                9.99933E-1                                     2.05547E-5                                        4.61596E-5
1.08000E3                5.08600E2                5.08600E2                9.99939E-1                                     1.79286E-5                                        4.35101E-5
1.08000E3                5.08800E2                5.08800E2                9.99943E-1                                     1.57779E-5                                        4.15637E-5
1.08000E3                5.09000E2                5.09000E2                9.99946E-1                                     1.39939E-5                                        4.04516E-5
1.08000E3                5.09200E2                5.09200E2                9.99947E-1                                     1.24977E-5                                        4.03102E-5
1.08000E3                5.09400E2                5.09400E2                9.99948E-1                                     1.12306E-5                                        4.12428E-5
1.08000E3                5.09600E2                5.09600E2                9.99947E-1                                     1.01484E-5                                        4.32874E-5
1.08000E3                5.09800E2                5.09800E2                9.99944E-1                                     9.21708E-6                                        4.63961E-5
1.08000E3                5.10000E2                5.10000E2                9.99941E-1                                     8.41003E-6                                        5.04210E-5
1.08000E3                5.10200E2                5.10200E2                9.99937E-1                                     7.70636E-6                                        5.51097E-5
1.08000E3                5.10400E2                5.10400E2                9.99933E-1                                     7.08938E-6                                        6.01150E-5
1.08000E3                5.10600E2                5.10600E2                9.99928E-1                                     6.54567E-6                                        6.50247E-5
1.08000E3                5.10800E2                5.10800E2                9.99925E-1                                     6.06422E-6                                        6.94112E-5
1.08000E3                5.11000E2                5.11000E2                9.99921E-1                                     5.63593E-6                                        7.28904E-5
1.08000E3                5.11200E2                5.11200E2                9.99920E-1                                     5.25326E-6                                        7.51748E-5
1.08000E3                5.11400E2                5.11400E2                9.99919E-1                                     4.90994E-6                                        7.60999E-5
1.08000E3                5.11600E2                5.11600E2                9.99920E-1                                     4.60085E-6                                        7.56201E-5
1.08000E3                5.11800E2                5.11800E2                9.99922E-1                                     4.32175E-6                                        7.37924E-5
1.08000E3                5.12000E2                5.12000E2                9.99925E-1                                     4.06896E-6                                        7.07687E-5
1.08000E3                5.12200E2                5.12200E2                9.99929E-1                                     3.83924E-6                                        6.67852E-5
1.08000E3                5.12400E2                5.12400E2                9.99934E-1                                     3.62970E-6                                        6.21339E-5
1.08000E3                5.12600E2                5.12600E2                9.99939E-1                                     3.43788E-6                                        5.71184E-5
1.08000E3                5.12800E2                5.12800E2                9.99945E-1                                     3.26170E-6                                        5.20113E-5
1.08000E3                5.13000E2                5.13000E2                9.99950E-1                                     3.09948E-6                                        4.70255E-5
1.08000E3                5.13200E2                5.13200E2                9.99955E-1                                     2.94988E-6                                        4.23089E-5
1.08000E3                5.13400E2                5.13400E2                9.99959E-1                                     2.81176E-6                                        3.79656E-5
1.08000E3                5.13600E2                5.13600E2                9.99963E-1                                     2.68411E-6                                        3.40993E-5
1.08000E3                5.13800E2                5.13800E2                9.99967E-1                                     2.56581E-6                                        3.08662E-5
1.08000E3                5.14000E2                5.14000E2                9.99969E-1                                     2.45569E-6                                        2.85058E-5
1.08000E3                5.14200E2                5.14200E2                9.99970E-1                                     2.35272E-6                                        2.72953E-5
1.08000E3                5.14400E2                5.14400E2                9.99970E-1                                     2.25635E-6                                        2.74365E-5
1.08000E3                5.14600E2                5.14600E2                9.99969E-1                                     2.16648E-6                                        2.90167E-5
1.08000E3                5.14800E2                5.14800E2                9.99966E-1                                     2.08297E-6                                        3.20744E-5
1.08000E3                5.15000E2                5.15000E2                9.99961E-1                                     2.00543E-6                                        3.66276E-5
1.08000E3                5.15200E2                5.15200E2                9.99955E-1                                     1.93328E-6                                        4.26228E-5
1.08000E3                5.15400E2                5.15400E2                9.99948E-1                                     1.86596E-6                                        4.98696E-5
1.08000E3                5.15600E2                5.15600E2                9.99940E-1                                     1.80296E-6                                        5.80053E-5
1.08000E3                5.15800E2                5.15800E2                9.99932E-1                                     1.74393E-6                                        6.65021E-5
1.08000E3                5.16000E2                5.16000E2                9.99924E-1                                     1.68859E-6                                        7.47253E-5
1.08000E3                5.16200E2                5.16200E2                9.99916E-1                                     1.63660E-6                                        8.20247E-5
1.08000E3                5.16400E2                5.16400E2                9.99911E-1                                     1.58753E-6                                        8.78158E-5
1.08000E3                5.16600E2                5.16600E2                9.99907E-1                                     1.54102E-6                                        9.15978E-5
1.08000E3                5.16800E2                5.16800E2                9.99906E-1                                     1.49709E-6                                        9.29657E-5
1.08000E3                5.17000E2                5.17000E2                9.99907E-1                                     1.45584E-6                                        9.17656E-5
1.08000E3                5.17200E2                5.17200E2                9.99910E-1                                     1.41690E-6                                        8.82417E-5
1.08000E3                5.17400E2                5.17400E2                9.99916E-1                                     1.37974E-6                                        8.28896E-5
1.08000E3                5.17600E2                5.17600E2                9.99922E-1                                     1.34405E-6                                        7.62350E-5
1.08000E3                5.17800E2                5.17800E2                9.99930E-1                                     1.30990E-6                                        6.87595E-5
1.08000E3                5.18000E2                5.18000E2                9.99938E-1                                     1.27755E-6                                        6.09068E-5
1.08000E3                5.18200E2                5.18200E2                9.99946E-1                                     1.24726E-6                                        5.30928E-5
1.08000E3                5.18400E2                5.18400E2                9.99953E-1                                     1.21894E-6                                        4.57011E-5
1.08000E3                5.18600E2                5.18600E2                9.99960E-1                                     1.19166E-6                                        3.90575E-5
1.08000E3                5.18800E2                5.18800E2                9.99965E-1                                     1.16351E-6                                        3.33570E-5
1.08000E3                5.19000E2                5.19000E2                9.99970E-1                                     1.13263E-6                                        2.85305E-5
1.08000E3                5.19200E2                5.19200E2                9.99975E-1                                     1.10055E-6                                        2.42923E-5
1.08000E3                5.19400E2                5.19400E2                9.99978E-1                                     1.07303E-6                                        2.08366E-5
1.08000E3                5.19600E2                5.19600E2                9.99980E-1                                     1.05266E-6                                        1.91543E-5
1.08000E3                5.19800E2                5.19800E2                9.99979E-1                                     1.03653E-6                                        2.01092E-5
1.08000E3                5.20000E2                5.20000E2                9.99975E-1                                     1.02170E-6                                        2.40587E-5
1.08100E3                5.00000E2                5.00000E2                9.99882E-1                                     9.19794E-6                                        1.08679E-4
1.08100E3                5.00200E2                5.00200E2                9.99879E-1                                     1.07400E-5                                        1.10114E-4
1.08100E3                5.00400E2                5.00400E2                9.99876E-1                                     1.26496E-5                                        1.11841E-4
1.08100E3                5.00600E2                5.00600E2                9.99870E-1                                     1.52179E-5                                        1.15028E-4
1.08100E3                5.00800E2                5.00800E2                9.99860E-1                                     1.90369E-5                                        1.20834E-4
1.08100E3                5.01000E2                5.01000E2                9.99840E-1                                     2.56355E-5                                        1.34337E-4
1.08100E3                5.01200E2                5.01200E2                9.99785E-1                                     4.04579E-5                                        1.74947E-4
1.08100E3                5.01400E2                5.01400E2                9.99499E-1                                     1.02001E-4                                        3.98629E-4
1.08100E3                5.01600E2                5.01600E2                8.26051E-1                                     2.66992E-2                                        1.47249E-1
1.08100E3                5.01800E2                5.01800E2                9.99725E-1                                     1.05474E-5                                        2.64702E-4
1.08100E3                5.02000E2                5.02000E2                9.99890E-1                                     2.22839E-8                                        1.10415E-4
1.08100E3                5.02200E2                5.02200E2                9.99917E-1                                     2.07258E-6                                        8.07598E-5
1.08100E3                5.02400E2                5.02400E2                9.99926E-1                                     4.86726E-6                                        6.90180E-5
1.08100E3                5.02600E2                5.02600E2                9.99930E-1                                     7.71597E-6                                        6.23554E-5
1.08100E3                5.02800E2                5.02800E2                9.99932E-1                                     1.06889E-5                                        5.78041E-5
1.08100E3                5.03000E2                5.03000E2                9.99932E-1                                     1.39523E-5                                        5.44378E-5
1.08100E3                5.03200E2                5.03200E2                9.99930E-1                                     1.77070E-5                                        5.23302E-5
1.08100E3                5.03400E2                5.03400E2                9.99927E-1                                     2.22136E-5                                        5.09075E-5
1.08100E3                5.03600E2                5.03600E2                9.99922E-1                                     2.78249E-5                                        5.06238E-5
1.08100E3                5.03800E2                5.03800E2                9.99912E-1                                     3.50455E-5                                        5.31337E-5
1.08100E3                5.04000E2                5.04000E2                9.99902E-1                                     4.48544E-5                                        5.34598E-5
1.08100E3                5.04200E2                5.04200E2                9.99886E-1                                     5.83985E-5                                        5.53672E-5
1.08100E3                5.04400E2                5.04400E2                9.99862E-1                                     7.82689E-5                                        5.92552E-5
1.08100E3                5.04600E2                5.04600E2                9.99826E-1                                     1.09184E-4                                        6.46137E-5
1.08100E3                5.04800E2                5.04800E2                9.99767E-1                                     1.61264E-4                                        7.21678E-5
1.08100E3                5.05000E2                5.05000E2                9.99656E-1                                     2.59477E-4                                        8.43313E-5
1.08100E3                5.05200E2                5.05200E2                9.99410E-1                                     4.80142E-4                                        1.09721E-4
1.08100E3                5.05400E2                5.05400E2                9.98651E-1                                     1.15924E-3                                        1.90026E-4
1.08100E3                5.05600E2                5.05600E2                9.93542E-1                                     5.68427E-3                                        7.73403E-4
1.08100E3                5.05800E2                5.05800E2                8.83540E-1                                     1.01385E-1                                        1.50749E-2
1.08100E3                5.06000E2                5.06000E2                9.96626E-1                                     2.81240E-3                                        5.61448E-4
1.08100E3                5.06200E2                5.06200E2                9.98936E-1                                     8.28665E-4                                        2.35766E-4
1.08100E3                5.06400E2                5.06400E2                9.99454E-1                                     3.90777E-4                                        1.55117E-4
1.08100E3                5.06600E2                5.06600E2                9.99653E-1                                     2.26804E-4                                        1.20319E-4
1.08100E3                5.06800E2                5.06800E2                9.99751E-1                                     1.48046E-4                                        1.00590E-4
1.08100E3                5.07000E2                5.07000E2                9.99808E-1                                     1.04231E-4                                        8.74358E-5
1.08100E3                5.07200E2                5.07200E2                9.99845E-1                                     7.73626E-5                                        7.77112E-5
1.08100E3                5.07400E2                5.07400E2                9.99870E-1                                     5.97011E-5                                        7.00223E-5
1.08100E3                5.07600E2                5.07600E2                9.99889E-1                                     4.74717E-5                                        6.36720E-5
1.08100E3                5.07800E2                5.07800E2                9.99903E-1                                     3.86543E-5                                        5.82853E-5
1.08100E3                5.08000E2                5.08000E2                9.99914E-1                                     3.20885E-5                                        5.36589E-5
1.08100E3                5.08200E2                5.08200E2                9.99923E-1                                     2.70686E-5                                        4.96956E-5
1.08100E3                5.08400E2                5.08400E2                9.99930E-1                                     2.31450E-5                                        4.63704E-5
1.08100E3                5.08600E2                5.08600E2                9.99936E-1                                     2.00202E-5                                        4.37111E-5
1.08100E3                5.08800E2                5.08800E2                9.99941E-1                                     1.74905E-5                                        4.17878E-5
1.08100E3                5.09000E2                5.09000E2                9.99944E-1                                     1.54134E-5                                        4.07034E-5
1.08100E3                5.09200E2                5.09200E2                9.99946E-1                                     1.36867E-5                                        4.05754E-5
1.08100E3                5.09400E2                5.09400E2                9.99946E-1                                     1.22361E-5                                        4.15031E-5
1.08100E3                5.09600E2                5.09600E2                9.99945E-1                                     1.10062E-5                                        4.35301E-5
1.08100E3                5.09800E2                5.09800E2                9.99943E-1                                     9.95462E-6                                        4.66159E-5
1.08100E3                5.10000E2                5.10000E2                9.99940E-1                                     9.04896E-6                                        5.06183E-5
1.08100E3                5.10200E2                5.10200E2                9.99936E-1                                     8.26369E-6                                        5.52884E-5
1.08100E3                5.10400E2                5.10400E2                9.99932E-1                                     7.57866E-6                                        6.02809E-5
1.08100E3                5.10600E2                5.10600E2                9.99928E-1                                     6.97768E-6                                        6.51840E-5
1.08100E3                5.10800E2                5.10800E2                9.99924E-1                                     6.44766E-6                                        6.95676E-5
1.08100E3                5.11000E2                5.11000E2                9.99921E-1                                     5.97787E-6                                        7.30420E-5
1.08100E3                5.11200E2                5.11200E2                9.99919E-1                                     5.55950E-6                                        7.53115E-5
1.08100E3                5.11400E2                5.11400E2                9.99919E-1                                     5.18529E-6                                        7.62073E-5
1.08100E3                5.11600E2                5.11600E2                9.99919E-1                                     4.84931E-6                                        7.56885E-5