% Model:              cluster_pvk_0_TE_desp_0_sim_SOLVED.mph
% Version:            COMSOL 6.2.0.658
% Date:               Nov 23 2025, 09:39
% Table:              Accumulated Probe Table 13 - 
% h_fib (nm)             lda0 (nm)                lambda0 (nm)             Reflection port 1 (1), Global Variable Probe 1 Transmittance port 2 (1), Global Variable Probe 2 Absorptance total (1), Global Variable Probe 3
1.87900E3                5.08220E2                5.08220E2                9.99338E-1                                     1.04674E-6                                        6.60899E-4
1.87900E3                5.08250E2                5.08250E2                9.99346E-1                                     1.05370E-6                                        6.52839E-4
1.87900E3                5.08280E2                5.08280E2                9.99354E-1                                     1.06064E-6                                        6.44686E-4
1.87900E3                5.08310E2                5.08310E2                9.99362E-1                                     1.06762E-6                                        6.36455E-4
1.87900E3                5.08340E2                5.08340E2                9.99371E-1                                     1.07475E-6                                        6.28161E-4
1.87900E3                5.08370E2                5.08370E2                9.99379E-1                                     1.08214E-6                                        6.19817E-4
1.87900E3                5.08400E2                5.08400E2                9.99387E-1                                     1.08990E-6                                        6.11437E-4
1.87900E3                5.08430E2                5.08430E2                9.99396E-1                                     1.09815E-6                                        6.03035E-4
1.87900E3                5.08460E2                5.08460E2                9.99404E-1                                     1.10704E-6                                        5.94623E-4
1.87900E3                5.08490E2                5.08490E2                9.99413E-1                                     1.11671E-6                                        5.86215E-4
1.87900E3                5.08520E2                5.08520E2                9.99421E-1                                     1.12732E-6                                        5.77822E-4
1.87900E3                5.08550E2                5.08550E2                9.99429E-1                                     1.13902E-6                                        5.69455E-4
1.87900E3                5.08580E2                5.08580E2                9.99438E-1                                     1.15201E-6                                        5.61127E-4
1.87900E3                5.08610E2                5.08610E2                9.99446E-1                                     1.16646E-6                                        5.52845E-4
1.87900E3                5.08640E2                5.08640E2                9.99454E-1                                     1.18259E-6                                        5.44621E-4
1.87900E3                5.08670E2                5.08670E2                9.99462E-1                                     1.20060E-6                                        5.36463E-4
1.87900E3                5.08700E2                5.08700E2                9.99470E-1                                     1.22075E-6                                        5.28378E-4
1.87900E3                5.08730E2                5.08730E2                9.99478E-1                                     1.24327E-6                                        5.20375E-4
1.87900E3                5.08760E2                5.08760E2                9.99486E-1                                     1.26847E-6                                        5.12461E-4
1.87900E3                5.08790E2                5.08790E2                9.99494E-1                                     1.29663E-6                                        5.04642E-4
1.87900E3                5.08820E2                5.08820E2                9.99502E-1                                     1.32812E-6                                        4.96925E-4
1.87900E3                5.08850E2                5.08850E2                9.99509E-1                                     1.36331E-6                                        4.89317E-4
1.87900E3                5.08880E2                5.08880E2                9.99517E-1                                     1.40263E-6                                        4.81823E-4
1.87900E3                5.08910E2                5.08910E2                9.99524E-1                                     1.44658E-6                                        4.74450E-4
1.87900E3                5.08940E2                5.08940E2                9.99531E-1                                     1.49572E-6                                        4.67205E-4
1.87900E3                5.08970E2                5.08970E2                9.99538E-1                                     1.55068E-6                                        4.60094E-4
1.87900E3                5.09000E2                5.09000E2                9.99545E-1                                     1.61220E-6                                        4.53127E-4
1.87900E3                5.09030E2                5.09030E2                9.99552E-1                                     1.68115E-6                                        4.46311E-4
1.87900E3                5.09060E2                5.09060E2                9.99559E-1                                     1.75854E-6                                        4.39656E-4
1.87900E3                5.09090E2                5.09090E2                9.99565E-1                                     1.84555E-6                                        4.33173E-4
1.87900E3                5.09120E2                5.09120E2                9.99571E-1                                     1.94359E-6                                        4.26877E-4
1.87900E3                5.09150E2                5.09150E2                9.99577E-1                                     2.05433E-6                                        4.20784E-4
1.87900E3                5.09180E2                5.09180E2                9.99583E-1                                     2.17980E-6                                        4.14911E-4
1.87900E3                5.09210E2                5.09210E2                9.99588E-1                                     2.32241E-6                                        4.09282E-4
1.87900E3                5.09240E2                5.09240E2                9.99594E-1                                     2.48515E-6                                        4.03925E-4
1.87900E3                5.09270E2                5.09270E2                9.99598E-1                                     2.67165E-6                                        3.98873E-4
1.87900E3                5.09300E2                5.09300E2                9.99603E-1                                     2.88645E-6                                        3.94168E-4
1.87900E3                5.09330E2                5.09330E2                9.99607E-1                                     3.13519E-6                                        3.89862E-4
1.87900E3                5.09360E2                5.09360E2                9.99611E-1                                     3.42503E-6                                        3.86018E-4
1.87900E3                5.09390E2                5.09390E2                9.99614E-1                                     3.76510E-6                                        3.82719E-4
1.87900E3                5.09420E2                5.09420E2                9.99616E-1                                     4.16724E-6                                        3.80070E-4
1.87900E3                5.09450E2                5.09450E2                9.99617E-1                                     4.64698E-6                                        3.78207E-4
1.87900E3                5.09480E2                5.09480E2                9.99617E-1                                     5.22500E-6                                        3.77307E-4
1.87900E3                5.09510E2                5.09510E2                9.99616E-1                                     5.92933E-6                                        3.77612E-4
1.87900E3                5.09540E2                5.09540E2                9.99614E-1                                     6.79873E-6                                        3.79448E-4
1.87900E3                5.09570E2                5.09570E2                9.99609E-1                                     7.88791E-6                                        3.83271E-4
1.87900E3                5.09600E2                5.09600E2                9.99601E-1                                     9.27612E-6                                        3.89736E-4
1.87900E3                5.09630E2                5.09630E2                9.99589E-1                                     1.10816E-5                                        3.99805E-4
1.87900E3                5.09660E2                5.09660E2                9.99572E-1                                     1.34868E-5                                        4.14952E-4
1.87900E3                5.09690E2                5.09690E2                9.99546E-1                                     1.67853E-5                                        4.37518E-4
1.87900E3                5.09720E2                5.09720E2                9.99507E-1                                     2.14731E-5                                        4.71423E-4
1.87900E3                5.09750E2                5.09750E2                9.99448E-1                                     2.84422E-5                                        5.23649E-4
1.87900E3                5.09780E2                5.09780E2                9.99353E-1                                     3.94280E-5                                        6.07657E-4
1.87900E3                5.09810E2                5.09810E2                9.99190E-1                                     5.81788E-5                                        7.52264E-4
1.87900E3                5.09840E2                5.09840E2                9.98877E-1                                     9.40576E-5                                        1.02885E-3
1.87900E3                5.09870E2                5.09870E2                9.98166E-1                                     1.76186E-4                                        1.65754E-3
1.87900E3                5.09900E2                5.09900E2                9.95936E-1                                     4.36556E-4                                        3.62747E-3
1.87900E3                5.09930E2                5.09930E2                9.80113E-1                                     2.30877E-3                                        1.75780E-2
1.87900E3                5.09960E2                5.09960E2                8.22105E-1                                     2.14523E-2                                        1.56443E-1
1.87900E3                5.09990E2                5.09990E2                9.92156E-1                                     9.42806E-4                                        6.90088E-3
1.87900E3                5.10020E2                5.10020E2                9.97443E-1                                     2.94913E-4                                        2.26187E-3
1.87900E3                5.10050E2                5.10050E2                9.98657E-1                                     1.44123E-4                                        1.19926E-3
1.87900E3                5.10080E2                5.10080E2                9.99115E-1                                     8.62745E-5                                        7.98538E-4
1.87900E3                5.10110E2                5.10110E2                9.99335E-1                                     5.80683E-5                                        6.07402E-4
1.87900E3                5.10140E2                5.10140E2                9.99454E-1                                     4.22153E-5                                        5.03452E-4
1.87900E3                5.10170E2                5.10170E2                9.99525E-1                                     3.24283E-5                                        4.42676E-4
1.87900E3                5.10200E2                5.10200E2                9.99568E-1                                     2.59738E-5                                        4.06245E-4
1.87900E3                5.10230E2                5.10230E2                9.99593E-1                                     2.15072E-5                                        3.85153E-4
1.87900E3                5.10260E2                5.10260E2                9.99607E-1                                     1.83051E-5                                        3.74809E-4
1.87900E3                5.10290E2                5.10290E2                9.99611E-1                                     1.59508E-5                                        3.72854E-4
1.87900E3                5.10320E2                5.10320E2                9.99608E-1                                     1.41927E-5                                        3.78208E-4
1.87900E3                5.10350E2                5.10350E2                9.99596E-1                                     1.28737E-5                                        3.90641E-4
1.87900E3                5.10380E2                5.10380E2                9.99577E-1                                     1.18972E-5                                        4.10638E-4
1.87900E3                5.10410E2                5.10410E2                9.99549E-1                                     1.12106E-5                                        4.39480E-4
1.87900E3                5.10440E2                5.10440E2                9.99510E-1                                     1.08074E-5                                        4.79653E-4
1.87900E3                5.10470E2                5.10470E2                9.99453E-1                                     1.07607E-5                                        5.36088E-4
1.87900E3                5.10500E2                5.10500E2                9.99368E-1                                     1.13716E-5                                        6.20387E-4
1.87900E3                5.10530E2                5.10530E2                9.99215E-1                                     1.39511E-5                                        7.70778E-4
1.87900E3                5.10560E2                5.10560E2                9.98744E-1                                     2.82746E-5                                        1.22771E-3
1.87900E3                5.10590E2                5.10590E2                9.78093E-1                                     9.36749E-4                                        2.09702E-2
1.87900E3                5.10620E2                5.10620E2                9.97772E-1                                     8.04125E-5                                        2.14787E-3
1.87900E3                5.10650E2                5.10650E2                9.98541E-1                                     3.02388E-5                                        1.42909E-3
1.87900E3                5.10680E2                5.10680E2                9.98403E-1                                     2.31575E-5                                        1.57354E-3
1.87900E3                5.10710E2                5.10710E2                9.98054E-1                                     2.21161E-5                                        1.92404E-3
1.87900E3                5.10740E2                5.10740E2                9.97498E-1                                     2.35294E-5                                        2.47817E-3
1.87900E3                5.10770E2                5.10770E2                9.96634E-1                                     2.69929E-5                                        3.33905E-3
1.87900E3                5.10800E2                5.10800E2                9.95233E-1                                     3.31963E-5                                        4.73352E-3
1.87900E3                5.10830E2                5.10830E2                9.92797E-1                                     4.41244E-5                                        7.15860E-3
1.87900E3                5.10860E2                5.10860E2                9.88111E-1                                     6.47042E-5                                        1.18240E-2
1.87900E3                5.10890E2                5.10890E2                9.77783E-1                                     1.08322E-4                                        2.21087E-2
1.87900E3                5.10920E2                5.10920E2                9.51676E-1                                     2.12644E-4                                        4.81113E-2
1.87900E3                5.10950E2                5.10950E2                9.02359E-1                                     3.90472E-4                                        9.72505E-2
1.87900E3                5.10980E2                5.10980E2                9.21395E-1                                     2.87578E-4                                        7.83171E-2
1.87900E3                5.11010E2                5.11010E2                9.63284E-1                                     1.23687E-4                                        3.65920E-2
1.87900E3                5.11040E2                5.11040E2                9.81113E-1                                     5.89625E-5                                        1.88275E-2
1.87900E3                5.11070E2                5.11070E2                9.88776E-1                                     3.26804E-5                                        1.11912E-2
1.87900E3                5.11100E2                5.11100E2                9.92593E-1                                     2.02437E-5                                        7.38713E-3
1.87900E3                5.11130E2                5.11130E2                9.94739E-1                                     1.35818E-5                                        5.24764E-3
1.87900E3                5.11160E2                5.11160E2                9.96060E-1                                     9.66952E-6                                        3.93059E-3
1.87900E3                5.11190E2                5.11190E2                9.96930E-1                                     7.20769E-6                                        3.06284E-3
1.87900E3                5.11220E2                5.11220E2                9.97534E-1                                     5.57400E-6                                        2.46040E-3
1.87900E3                5.11250E2                5.11250E2                9.97971E-1                                     4.44347E-6                                        2.02452E-3
1.87900E3                5.11280E2                5.11280E2                9.98298E-1                                     3.63435E-6                                        1.69846E-3
1.87900E3                5.11310E2                5.11310E2                9.98549E-1                                     3.03913E-6                                        1.44776E-3
1.87900E3                5.11340E2                5.11340E2                9.98747E-1                                     2.59127E-6                                        1.25055E-3
1.87900E3                5.11370E2                5.11370E2                9.98905E-1                                     2.24795E-6                                        1.09240E-3
1.87900E3                5.11400E2                5.11400E2                9.99035E-1                                     1.98072E-6                                        9.63449E-4
1.87900E3                5.11430E2                5.11430E2                9.99141E-1                                     1.77013E-6                                        8.56808E-4
1.87900E3                5.11460E2                5.11460E2                9.99231E-1                                     1.60257E-6                                        7.67520E-4
1.87900E3                5.11490E2                5.11490E2                9.99307E-1                                     1.46833E-6                                        6.91953E-4
1.87900E3                5.11520E2                5.11520E2                9.99371E-1                                     1.36034E-6                                        6.27392E-4
1.87900E3                5.11550E2                5.11550E2                9.99427E-1                                     1.27338E-6                                        5.71774E-4
1.87900E3                5.11580E2                5.11580E2                9.99475E-1                                     1.20356E-6                                        5.23508E-4
1.87900E3                5.11610E2                5.11610E2                9.99518E-1                                     1.14793E-6                                        4.81350E-4
1.87900E3                5.11640E2                5.11640E2                9.99555E-1                                     1.10426E-6                                        4.44316E-4
1.87900E3                5.11670E2                5.11670E2                9.99587E-1                                     1.07083E-6                                        4.11619E-4
1.87900E3                5.11700E2                5.11700E2                9.99616E-1                                     1.04635E-6                                        3.82620E-4
1.87900E3                5.11730E2                5.11730E2                9.99642E-1                                     1.02983E-6                                        3.56801E-4
1.87900E3                5.11760E2                5.11760E2                9.99665E-1                                     1.02054E-6                                        3.33733E-4
1.87900E3                5.11790E2                5.11790E2                9.99686E-1                                     1.01794E-6                                        3.13062E-4
1.87900E3                5.11820E2                5.11820E2                9.99704E-1                                     1.02169E-6                                        2.94489E-4
1.87900E3                5.11850E2                5.11850E2                9.99721E-1                                     1.03157E-6                                        2.77767E-4
1.87900E3                5.11880E2                5.11880E2                9.99736E-1                                     1.04752E-6                                        2.62682E-4
1.87900E3                5.11910E2                5.11910E2                9.99750E-1                                     1.06958E-6                                        2.49054E-4
1.87900E3                5.11940E2                5.11940E2                9.99762E-1                                     1.09792E-6                                        2.36731E-4
1.87900E3                5.11970E2                5.11970E2                9.99773E-1                                     1.13286E-6                                        2.25579E-4
1.87900E3                5.12000E2                5.12000E2                9.99783E-1                                     1.17481E-6                                        2.15485E-4
1.87900E3                5.12030E2                5.12030E2                9.99792E-1                                     1.22434E-6                                        2.06350E-4
1.87900E3                5.12060E2                5.12060E2                9.99801E-1                                     1.28221E-6                                        1.98090E-4
1.87900E3                5.12090E2                5.12090E2                9.99808E-1                                     1.34932E-6                                        1.90632E-4
1.87900E3                5.12120E2                5.12120E2                9.99815E-1                                     1.42684E-6                                        1.83915E-4
1.87900E3                5.12150E2                5.12150E2                9.99821E-1                                     1.51619E-6                                        1.77886E-4
1.87900E3                5.12180E2                5.12180E2                9.99826E-1                                     1.61914E-6                                        1.72501E-4
1.87900E3                5.12210E2                5.12210E2                9.99831E-1                                     1.73786E-6                                        1.67727E-4
1.87900E3                5.12240E2                5.12240E2                9.99835E-1                                     1.87507E-6                                        1.63537E-4
1.87900E3                5.12270E2                5.12270E2                9.99838E-1                                     2.03418E-6                                        1.59917E-4
1.87900E3                5.12300E2                5.12300E2                9.99841E-1                                     2.21947E-6                                        1.56858E-4
1.87900E3                5.12330E2                5.12330E2                9.99843E-1                                     2.43642E-6                                        1.54369E-4
1.87900E3                5.12360E2                5.12360E2                9.99845E-1                                     2.69207E-6                                        1.52469E-4
1.87900E3                5.12390E2                5.12390E2                9.99846E-1                                     2.99559E-6                                        1.51197E-4
1.87900E3                5.12420E2                5.12420E2                9.99846E-1                                     3.35914E-6                                        1.50615E-4
1.87900E3                5.12450E2                5.12450E2                9.99845E-1                                     3.79904E-6                                        1.50819E-4
1.87900E3                5.12480E2                5.12480E2                9.99844E-1                                     4.33764E-6                                        1.51950E-4
1.87900E3                5.12510E2                5.12510E2                9.99841E-1                                     5.00619E-6                                        1.54215E-4
1.87900E3                5.12540E2                5.12540E2                9.99836E-1                                     5.84945E-6                                        1.57923E-4
1.87900E3                5.12570E2                5.12570E2                9.99830E-1                                     6.93332E-6                                        1.63539E-4
1.87900E3                5.12600E2                5.12600E2                9.99820E-1                                     8.35811E-6                                        1.71783E-4
1.87900E3                5.12630E2                5.12630E2                9.99806E-1                                     1.02825E-5                                        1.83810E-4
1.87900E3                5.12660E2                5.12660E2                9.99785E-1                                     1.29698E-5                                        2.01549E-4
1.87900E3                5.12690E2                5.12690E2                9.99755E-1                                     1.68828E-5                                        2.28419E-4
1.87900E3                5.12720E2                5.12720E2                9.99706E-1                                     2.28972E-5                                        2.70924E-4
1.87900E3                5.12750E2                5.12750E2                9.99624E-1                                     3.28378E-5                                        3.42684E-4
1.87900E3                5.12780E2                5.12780E2                9.99473E-1                                     5.10460E-5                                        4.76251E-4
1.87900E3                5.12810E2                5.12810E2                9.99144E-1                                     9.00688E-5                                        7.66123E-4
1.87900E3                5.12840E2                5.12840E2                9.98210E-1                                     1.99865E-4                                        1.59024E-3
1.87900E3                5.12870E2                5.12870E2                9.93342E-1                                     7.67414E-4                                        5.89028E-3
1.87900E3                5.12900E2                5.12900E2                1.59114E-1                                     9.71257E-2                                        7.43760E-1
1.87900E3                5.12930E2                5.12930E2                9.92138E-1                                     8.83379E-4                                        6.97819E-3
1.87900E3                5.12960E2                5.12960E2                9.97989E-1                                     2.13946E-4                                        1.79672E-3
1.87900E3                5.12990E2                5.12990E2                9.99046E-1                                     9.39709E-5                                        8.60012E-4