% Model:              cluster_pvk_15_TE_desp_0_sim_SOLVED.mph
% Version:            COMSOL 6.2.0.658
% Date:               Nov 27 2025, 20:05
% Table:              Accumulated Probe Table 13 - 
% h_fib (nm)             lda0 (nm)                lambda0 (nm)             Reflection port 1 (1), Global Variable Probe 1 Transmittance port 2 (1), Global Variable Probe 2 Absorptance total (1), Global Variable Probe 3
1.87900E3                5.08220E2                5.08220E2                9.97359E-1                                     1.93191E-8                                        2.64093E-3
1.87900E3                5.08250E2                5.08250E2                9.97374E-1                                     1.87874E-8                                        2.62640E-3
1.87900E3                5.08280E2                5.08280E2                9.97388E-1                                     1.82637E-8                                        2.61184E-3
1.87900E3                5.08310E2                5.08310E2                9.97403E-1                                     1.77481E-8                                        2.59724E-3
1.87900E3                5.08340E2                5.08340E2                9.97417E-1                                     1.72407E-8                                        2.58261E-3
1.87900E3                5.08370E2                5.08370E2                9.97432E-1                                     1.67417E-8                                        2.56796E-3
1.87900E3                5.08400E2                5.08400E2                9.97447E-1                                     1.62509E-8                                        2.55329E-3
1.87900E3                5.08430E2                5.08430E2                9.97461E-1                                     1.57685E-8                                        2.53860E-3
1.87900E3                5.08460E2                5.08460E2                9.97476E-1                                     1.52946E-8                                        2.52390E-3
1.87900E3                5.08490E2                5.08490E2                9.97491E-1                                     1.48290E-8                                        2.50920E-3
1.87900E3                5.08520E2                5.08520E2                9.97505E-1                                     1.43718E-8                                        2.49449E-3
1.87900E3                5.08550E2                5.08550E2                9.97520E-1                                     1.39230E-8                                        2.47979E-3
1.87900E3                5.08580E2                5.08580E2                9.97535E-1                                     1.34825E-8                                        2.46508E-3
1.87900E3                5.08610E2                5.08610E2                9.97550E-1                                     1.30504E-8                                        2.45039E-3
1.87900E3                5.08640E2                5.08640E2                9.97564E-1                                     1.26265E-8                                        2.43570E-3
1.87900E3                5.08670E2                5.08670E2                9.97579E-1                                     1.22109E-8                                        2.42103E-3
1.87900E3                5.08700E2                5.08700E2                9.97594E-1                                     1.18035E-8                                        2.40638E-3
1.87900E3                5.08730E2                5.08730E2                9.97608E-1                                     1.14043E-8                                        2.39174E-3
1.87900E3                5.08760E2                5.08760E2                9.97623E-1                                     1.10133E-8                                        2.37712E-3
1.87900E3                5.08790E2                5.08790E2                9.97637E-1                                     1.06303E-8                                        2.36253E-3
1.87900E3                5.08820E2                5.08820E2                9.97652E-1                                     1.02555E-8                                        2.34796E-3
1.87900E3                5.08850E2                5.08850E2                9.97667E-1                                     9.88886E-9                                        2.33342E-3
1.87900E3                5.08880E2                5.08880E2                9.97681E-1                                     9.53029E-9                                        2.31890E-3
1.87900E3                5.08910E2                5.08910E2                9.97696E-1                                     9.17984E-9                                        2.30442E-3
1.87900E3                5.08940E2                5.08940E2                9.97710E-1                                     8.83756E-9                                        2.28997E-3
1.87900E3                5.08970E2                5.08970E2                9.97724E-1                                     8.50348E-9                                        2.27556E-3
1.87900E3                5.09000E2                5.09000E2                9.97738E-1                                     8.19922E-9                                        2.26173E-3
1.87900E3                5.09030E2                5.09030E2                9.97752E-1                                     7.90307E-9                                        2.24795E-3
1.87900E3                5.09060E2                5.09060E2                9.97766E-1                                     7.61441E-9                                        2.23418E-3
1.87900E3                5.09090E2                5.09090E2                9.97780E-1                                     7.33339E-9                                        2.22044E-3
1.87900E3                5.09120E2                5.09120E2                9.97793E-1                                     7.06018E-9                                        2.20673E-3
1.87900E3                5.09150E2                5.09150E2                9.97807E-1                                     6.79498E-9                                        2.19303E-3
1.87900E3                5.09180E2                5.09180E2                9.97821E-1                                     6.53800E-9                                        2.17937E-3
1.87900E3                5.09210E2                5.09210E2                9.97834E-1                                     6.28949E-9                                        2.16574E-3
1.87900E3                5.09240E2                5.09240E2                9.97848E-1                                     6.04970E-9                                        2.15213E-3
1.87900E3                5.09270E2                5.09270E2                9.97861E-1                                     5.81892E-9                                        2.13856E-3
1.87900E3                5.09300E2                5.09300E2                9.97875E-1                                     5.59744E-9                                        2.12502E-3
1.87900E3                5.09330E2                5.09330E2                9.97888E-1                                     5.38560E-9                                        2.11151E-3
1.87900E3                5.09360E2                5.09360E2                9.97902E-1                                     5.18372E-9                                        2.09804E-3
1.87900E3                5.09390E2                5.09390E2                9.97915E-1                                     4.99219E-9                                        2.08461E-3
1.87900E3                5.09420E2                5.09420E2                9.97929E-1                                     4.81138E-9                                        2.07121E-3
1.87900E3                5.09450E2                5.09450E2                9.97942E-1                                     4.64168E-9                                        2.05786E-3
1.87900E3                5.09480E2                5.09480E2                9.97955E-1                                     4.48350E-9                                        2.04454E-3
1.87900E3                5.09510E2                5.09510E2                9.97969E-1                                     4.33728E-9                                        2.03127E-3
1.87900E3                5.09540E2                5.09540E2                9.97982E-1                                     4.20344E-9                                        2.01804E-3
1.87900E3                5.09570E2                5.09570E2                9.97995E-1                                     4.08244E-9                                        2.00485E-3
1.87900E3                5.09600E2                5.09600E2                9.98008E-1                                     3.97471E-9                                        1.99172E-3
1.87900E3                5.09630E2                5.09630E2                9.98021E-1                                     3.88070E-9                                        1.97862E-3
1.87900E3                5.09660E2                5.09660E2                9.98034E-1                                     3.80088E-9                                        1.96558E-3
1.87900E3                5.09690E2                5.09690E2                9.98047E-1                                     3.73567E-9                                        1.95259E-3
1.87900E3                5.09720E2                5.09720E2                9.98060E-1                                     3.68551E-9                                        1.93964E-3
1.87900E3                5.09750E2                5.09750E2                9.98073E-1                                     3.65084E-9                                        1.92676E-3
1.87900E3                5.09780E2                5.09780E2                9.98086E-1                                     3.63205E-9                                        1.91392E-3
1.87900E3                5.09810E2                5.09810E2                9.98099E-1                                     3.62954E-9                                        1.90114E-3
1.87900E3                5.09840E2                5.09840E2                9.98112E-1                                     3.64366E-9                                        1.88842E-3
1.87900E3                5.09870E2                5.09870E2                9.98124E-1                                     3.67476E-9                                        1.87575E-3
1.87900E3                5.09900E2                5.09900E2                9.98137E-1                                     3.72313E-9                                        1.86315E-3
1.87900E3                5.09930E2                5.09930E2                9.98149E-1                                     3.78903E-9                                        1.85061E-3
1.87900E3                5.09960E2                5.09960E2                9.98162E-1                                     3.87269E-9                                        1.83813E-3
1.87900E3                5.09990E2                5.09990E2                9.98174E-1                                     3.97429E-9                                        1.82571E-3
1.87900E3                5.10020E2                5.10020E2                9.98187E-1                                     4.09394E-9                                        1.81337E-3
1.87900E3                5.10050E2                5.10050E2                9.98199E-1                                     4.23173E-9                                        1.80109E-3
1.87900E3                5.10080E2                5.10080E2                9.98211E-1                                     4.38767E-9                                        1.78888E-3
1.87900E3                5.10110E2                5.10110E2                9.98223E-1                                     4.56172E-9                                        1.77674E-3
1.87900E3                5.10140E2                5.10140E2                9.98235E-1                                     4.75377E-9                                        1.76468E-3
1.87900E3                5.10170E2                5.10170E2                9.98247E-1                                     4.96365E-9                                        1.75269E-3
1.87900E3                5.10200E2                5.10200E2                9.98259E-1                                     5.19112E-9                                        1.74078E-3
1.87900E3                5.10230E2                5.10230E2                9.98271E-1                                     5.43588E-9                                        1.72895E-3
1.87900E3                5.10260E2                5.10260E2                9.98283E-1                                     5.69756E-9                                        1.71720E-3
1.87900E3                5.10290E2                5.10290E2                9.98294E-1                                     5.97570E-9                                        1.70553E-3
1.87900E3                5.10320E2                5.10320E2                9.98306E-1                                     6.26981E-9                                        1.69395E-3
1.87900E3                5.10350E2                5.10350E2                9.98318E-1                                     6.57930E-9                                        1.68246E-3
1.87900E3                5.10380E2                5.10380E2                9.98329E-1                                     6.90353E-9                                        1.67105E-3
1.87900E3                5.10410E2                5.10410E2                9.98340E-1                                     7.24178E-9                                        1.65974E-3
1.87900E3                5.10440E2                5.10440E2                9.98351E-1                                     7.59328E-9                                        1.64851E-3
1.87900E3                5.10470E2                5.10470E2                9.98363E-1                                     7.95722E-9                                        1.63739E-3
1.87900E3                5.10500E2                5.10500E2                9.98374E-1                                     8.33269E-9                                        1.62636E-3
1.87900E3                5.10530E2                5.10530E2                9.98385E-1                                     8.71877E-9                                        1.61543E-3
1.87900E3                5.10560E2                5.10560E2                9.98395E-1                                     9.11447E-9                                        1.60460E-3
1.87900E3                5.10590E2                5.10590E2                9.98404E-1                                     9.55561E-9                                        1.59549E-3
1.87900E3                5.10620E2                5.10620E2                9.98413E-1                                     1.00077E-8                                        1.58651E-3
1.87900E3                5.10650E2                5.10650E2                9.98422E-1                                     1.04683E-8                                        1.57760E-3
1.87900E3                5.10680E2                5.10680E2                9.98431E-1                                     1.09364E-8                                        1.56877E-3
1.87900E3                5.10710E2                5.10710E2                9.98440E-1                                     1.14109E-8                                        1.56002E-3
1.87900E3                5.10740E2                5.10740E2                9.98449E-1                                     1.18905E-8                                        1.55135E-3
1.87900E3                5.10770E2                5.10770E2                9.98457E-1                                     1.23742E-8                                        1.54277E-3
1.87900E3                5.10800E2                5.10800E2                9.98466E-1                                     1.28605E-8                                        1.53426E-3
1.87900E3                5.10830E2                5.10830E2                9.98474E-1                                     1.33484E-8                                        1.52585E-3
1.87900E3                5.10860E2                5.10860E2                9.98482E-1                                     1.38367E-8                                        1.51752E-3
1.87900E3                5.10890E2                5.10890E2                9.98491E-1                                     1.43240E-8                                        1.50928E-3
1.87900E3                5.10920E2                5.10920E2                9.98499E-1                                     1.48093E-8                                        1.50113E-3
1.87900E3                5.10950E2                5.10950E2                9.98507E-1                                     1.52912E-8                                        1.49307E-3
1.87900E3                5.10980E2                5.10980E2                9.98515E-1                                     1.57687E-8                                        1.48510E-3
1.87900E3                5.11010E2                5.11010E2                9.98523E-1                                     1.62407E-8                                        1.47722E-3
1.87900E3                5.11040E2                5.11040E2                9.98531E-1                                     1.67060E-8                                        1.46944E-3
1.87900E3                5.11070E2                5.11070E2                9.98538E-1                                     1.71636E-8                                        1.46175E-3
1.87900E3                5.11100E2                5.11100E2                9.98546E-1                                     1.76125E-8                                        1.45416E-3
1.87900E3                5.11130E2                5.11130E2                9.98553E-1                                     1.80518E-8                                        1.44666E-3
1.87900E3                5.11160E2                5.11160E2                9.98561E-1                                     1.84805E-8                                        1.43926E-3
1.87900E3                5.11190E2                5.11190E2                9.98568E-1                                     1.88978E-8                                        1.43194E-3
1.87900E3                5.11220E2                5.11220E2                9.98575E-1                                     1.93030E-8                                        1.42473E-3
1.87900E3                5.11250E2                5.11250E2                9.98582E-1                                     1.96952E-8                                        1.41761E-3
1.87900E3                5.11280E2                5.11280E2                9.98589E-1                                     2.00740E-8                                        1.41058E-3
1.87900E3                5.11310E2                5.11310E2                9.98596E-1                                     2.04387E-8                                        1.40364E-3
1.87900E3                5.11340E2                5.11340E2                9.98603E-1                                     2.07888E-8                                        1.39679E-3
1.87900E3                5.11370E2                5.11370E2                9.98610E-1                                     2.11238E-8                                        1.39003E-3
1.87900E3                5.11400E2                5.11400E2                9.98617E-1                                     2.14433E-8                                        1.38336E-3
1.87900E3                5.11430E2                5.11430E2                9.98623E-1                                     2.17472E-8                                        1.37677E-3
1.87900E3                5.11460E2                5.11460E2                9.98630E-1                                     2.20350E-8                                        1.37027E-3
1.87900E3                5.11490E2                5.11490E2                9.98636E-1                                     2.23066E-8                                        1.36385E-3
1.87900E3                5.11520E2                5.11520E2                9.98642E-1                                     2.25620E-8                                        1.35751E-3
1.87900E3                5.11550E2                5.11550E2                9.98649E-1                                     2.28009E-8                                        1.35124E-3
1.87900E3                5.11580E2                5.11580E2                9.98655E-1                                     2.30234E-8                                        1.34505E-3
1.87900E3                5.11610E2                5.11610E2                9.98661E-1                                     2.32296E-8                                        1.33893E-3
1.87900E3                5.11640E2                5.11640E2                9.98667E-1                                     2.34194E-8                                        1.33287E-3
1.87900E3                5.11670E2                5.11670E2                9.98673E-1                                     2.35931E-8                                        1.32688E-3
1.87900E3                5.11700E2                5.11700E2                9.98679E-1                                     2.37508E-8                                        1.32095E-3
1.87900E3                5.11730E2                5.11730E2                9.98685E-1                                     2.38927E-8                                        1.31508E-3
1.87900E3                5.11760E2                5.11760E2                9.98691E-1                                     2.40189E-8                                        1.30926E-3
1.87900E3                5.11790E2                5.11790E2                9.98696E-1                                     2.41299E-8                                        1.30349E-3
1.87900E3                5.11820E2                5.11820E2                9.98702E-1                                     2.42258E-8                                        1.29777E-3
1.87900E3                5.11850E2                5.11850E2                9.98708E-1                                     2.43069E-8                                        1.29210E-3
1.87900E3                5.11880E2                5.11880E2                9.98714E-1                                     2.43737E-8                                        1.28646E-3
1.87900E3                5.11910E2                5.11910E2                9.98719E-1                                     2.44263E-8                                        1.28086E-3
1.87900E3                5.11940E2                5.11940E2                9.98725E-1                                     2.44652E-8                                        1.27530E-3
1.87900E3                5.11970E2                5.11970E2                9.98730E-1                                     2.44906E-8                                        1.26976E-3
1.87900E3                5.12000E2                5.12000E2                9.98736E-1                                     2.45031E-8                                        1.26425E-3
1.87900E3                5.12030E2                5.12030E2                9.98741E-1                                     2.45028E-8                                        1.25876E-3
1.87900E3                5.12060E2                5.12060E2                9.98747E-1                                     2.44903E-8                                        1.25330E-3
1.87900E3                5.12090E2                5.12090E2                9.98752E-1                                     2.44658E-8                                        1.24785E-3
1.87900E3                5.12120E2                5.12120E2                9.98758E-1                                     2.44297E-8                                        1.24242E-3
1.87900E3                5.12150E2                5.12150E2                9.98763E-1                                     2.43825E-8                                        1.23700E-3
1.87900E3                5.12180E2                5.12180E2                9.98767E-1                                     2.43671E-8                                        1.23347E-3
1.87900E3                5.12210E2                5.12210E2                9.98770E-1                                     2.43493E-8                                        1.23024E-3
1.87900E3                5.12240E2                5.12240E2                9.98773E-1                                     2.43232E-8                                        1.22703E-3
1.87900E3                5.12270E2                5.12270E2                9.98776E-1                                     2.42892E-8                                        1.22384E-3
1.87900E3                5.12300E2                5.12300E2                9.98779E-1                                     2.42482E-8                                        1.22065E-3
1.87900E3                5.12330E2                5.12330E2                9.98782E-1                                     2.42006E-8                                        1.21748E-3
1.87900E3                5.12360E2                5.12360E2                9.98786E-1                                     2.41470E-8                                        1.21431E-3
1.87900E3                5.12390E2                5.12390E2                9.98789E-1                                     2.40882E-8                                        1.21116E-3
1.87900E3                5.12420E2                5.12420E2                9.98792E-1                                     2.40247E-8                                        1.20803E-3
1.87900E3                5.12450E2                5.12450E2                9.98795E-1                                     2.39571E-8                                        1.20490E-3
1.87900E3                5.12480E2                5.12480E2                9.98798E-1                                     2.38863E-8                                        1.20180E-3
1.87900E3                5.12510E2                5.12510E2                9.98801E-1                                     2.38128E-8                                        1.19870E-3
1.87900E3                5.12540E2                5.12540E2                9.98804E-1                                     2.37373E-8                                        1.19562E-3
1.87900E3                5.12570E2                5.12570E2                9.98807E-1                                     2.36605E-8                                        1.19256E-3
1.87900E3                5.12600E2                5.12600E2                9.98810E-1                                     2.35831E-8                                        1.18952E-3
1.87900E3                5.12630E2                5.12630E2                9.98813E-1                                     2.35057E-8                                        1.18650E-3
1.87900E3                5.12660E2                5.12660E2                9.98816E-1                                     2.34292E-8                                        1.18351E-3
1.87900E3                5.12690E2                5.12690E2                9.98819E-1                                     2.33543E-8                                        1.18053E-3
1.87900E3                5.12720E2                5.12720E2                9.98822E-1                                     2.32815E-8                                        1.17759E-3
1.87900E3                5.12750E2                5.12750E2                9.98825E-1                                     2.32117E-8                                        1.17467E-3
1.87900E3                5.12780E2                5.12780E2                9.98828E-1                                     2.31456E-8                                        1.17179E-3
1.87900E3                5.12810E2                5.12810E2                9.98831E-1                                     2.30839E-8                                        1.16893E-3
1.87900E3                5.12840E2                5.12840E2                9.98834E-1                                     2.30273E-8                                        1.16612E-3
1.87900E3                5.12870E2                5.12870E2                9.98837E-1                                     2.29766E-8                                        1.16334E-3
1.87900E3                5.12900E2                5.12900E2                9.98839E-1                                     2.29324E-8                                        1.16060E-3
1.87900E3                5.12930E2                5.12930E2                9.98842E-1                                     2.28955E-8                                        1.15791E-3
1.87900E3                5.12960E2                5.12960E2                9.98845E-1                                     2.28667E-8                                        1.15526E-3
1.87900E3                5.12990E2                5.12990E2                9.98847E-1                                     2.28465E-8                                        1.15266E-3