% Model:              cluster_pvk_15_TM_desp_0_sim_SOLVED.mph
% Version:            COMSOL 6.2.0.658
% Date:               Nov 27 2025, 20:09
% Table:              Accumulated Probe Table 13 - 
% h_fib (nm)             lda0 (nm)                lambda0 (nm)             Reflection port 1 (1), Global Variable Probe 1 Transmittance port 2 (1), Global Variable Probe 2 Absorptance total (1), Global Variable Probe 3
1.87900E3                5.08220E2                5.08220E2                9.48682E-1                                     1.03248E-7                                        5.13183E-2
1.87900E3                5.08250E2                5.08250E2                9.48709E-1                                     1.02503E-7                                        5.12909E-2
1.87900E3                5.08280E2                5.08280E2                9.48737E-1                                     1.01905E-7                                        5.12627E-2
1.87900E3                5.08310E2                5.08310E2                9.48766E-1                                     1.01455E-7                                        5.12337E-2
1.87900E3                5.08340E2                5.08340E2                9.48796E-1                                     1.01155E-7                                        5.12040E-2
1.87900E3                5.08370E2                5.08370E2                9.48826E-1                                     1.01007E-7                                        5.11735E-2
1.87900E3                5.08400E2                5.08400E2                9.48858E-1                                     1.01012E-7                                        5.11423E-2
1.87900E3                5.08430E2                5.08430E2                9.48889E-1                                     1.01173E-7                                        5.11104E-2
1.87900E3                5.08460E2                5.08460E2                9.48922E-1                                     1.01490E-7                                        5.10779E-2
1.87900E3                5.08490E2                5.08490E2                9.48955E-1                                     1.01966E-7                                        5.10447E-2
1.87900E3                5.08520E2                5.08520E2                9.48989E-1                                     1.02600E-7                                        5.10110E-2
1.87900E3                5.08550E2                5.08550E2                9.49023E-1                                     1.03396E-7                                        5.09766E-2
1.87900E3                5.08580E2                5.08580E2                9.49058E-1                                     1.04353E-7                                        5.09417E-2
1.87900E3                5.08610E2                5.08610E2                9.49094E-1                                     1.05473E-7                                        5.09062E-2
1.87900E3                5.08640E2                5.08640E2                9.49130E-1                                     1.06756E-7                                        5.08701E-2
1.87900E3                5.08670E2                5.08670E2                9.49166E-1                                     1.08204E-7                                        5.08334E-2
1.87900E3                5.08700E2                5.08700E2                9.49204E-1                                     1.09816E-7                                        5.07963E-2
1.87900E3                5.08730E2                5.08730E2                9.49241E-1                                     1.11592E-7                                        5.07585E-2
1.87900E3                5.08760E2                5.08760E2                9.49280E-1                                     1.13534E-7                                        5.07202E-2
1.87900E3                5.08790E2                5.08790E2                9.49319E-1                                     1.15641E-7                                        5.06814E-2
1.87900E3                5.08820E2                5.08820E2                9.49358E-1                                     1.17912E-7                                        5.06419E-2
1.87900E3                5.08850E2                5.08850E2                9.49398E-1                                     1.20347E-7                                        5.06019E-2
1.87900E3                5.08880E2                5.08880E2                9.49439E-1                                     1.22945E-7                                        5.05613E-2
1.87900E3                5.08910E2                5.08910E2                9.49480E-1                                     1.25704E-7                                        5.05200E-2
1.87900E3                5.08940E2                5.08940E2                9.49522E-1                                     1.28625E-7                                        5.04781E-2
1.87900E3                5.08970E2                5.08970E2                9.49564E-1                                     1.31704E-7                                        5.04355E-2
1.87900E3                5.09000E2                5.09000E2                9.49607E-1                                     1.35180E-7                                        5.03932E-2
1.87900E3                5.09030E2                5.09030E2                9.49650E-1                                     1.38839E-7                                        5.03501E-2
1.87900E3                5.09060E2                5.09060E2                9.49694E-1                                     1.42668E-7                                        5.03061E-2
1.87900E3                5.09090E2                5.09090E2                9.49739E-1                                     1.46665E-7                                        5.02612E-2
1.87900E3                5.09120E2                5.09120E2                9.49785E-1                                     1.50826E-7                                        5.02153E-2
1.87900E3                5.09150E2                5.09150E2                9.49831E-1                                     1.55145E-7                                        5.01684E-2
1.87900E3                5.09180E2                5.09180E2                9.49880E-1                                     1.59620E-7                                        5.01203E-2
1.87900E3                5.09210E2                5.09210E2                9.49929E-1                                     1.64244E-7                                        5.00710E-2
1.87900E3                5.09240E2                5.09240E2                9.49980E-1                                     1.69010E-7                                        5.00203E-2
1.87900E3                5.09270E2                5.09270E2                9.50032E-1                                     1.73913E-7                                        4.99682E-2
1.87900E3                5.09300E2                5.09300E2                9.50085E-1                                     1.78945E-7                                        4.99145E-2
1.87900E3                5.09330E2                5.09330E2                9.50141E-1                                     1.84097E-7                                        4.98591E-2
1.87900E3                5.09360E2                5.09360E2                9.50198E-1                                     1.89362E-7                                        4.98018E-2
1.87900E3                5.09390E2                5.09390E2                9.50257E-1                                     1.94729E-7                                        4.97426E-2
1.87900E3                5.09420E2                5.09420E2                9.50319E-1                                     2.00187E-7                                        4.96811E-2
1.87900E3                5.09450E2                5.09450E2                9.50383E-1                                     2.05726E-7                                        4.96172E-2
1.87900E3                5.09480E2                5.09480E2                9.50449E-1                                     2.11333E-7                                        4.95507E-2
1.87900E3                5.09510E2                5.09510E2                9.50518E-1                                     2.16993E-7                                        4.94813E-2
1.87900E3                5.09540E2                5.09540E2                9.50591E-1                                     2.22694E-7                                        4.94089E-2
1.87900E3                5.09570E2                5.09570E2                9.50667E-1                                     2.28418E-7                                        4.93331E-2
1.87900E3                5.09600E2                5.09600E2                9.50746E-1                                     2.34150E-7                                        4.92536E-2
1.87900E3                5.09630E2                5.09630E2                9.50829E-1                                     2.39870E-7                                        4.91703E-2
1.87900E3                5.09660E2                5.09660E2                9.50917E-1                                     2.45561E-7                                        4.90826E-2
1.87900E3                5.09690E2                5.09690E2                9.51009E-1                                     2.51200E-7                                        4.89903E-2
1.87900E3                5.09720E2                5.09720E2                9.51107E-1                                     2.56766E-7                                        4.88929E-2
1.87900E3                5.09750E2                5.09750E2                9.51210E-1                                     2.62237E-7                                        4.87902E-2
1.87900E3                5.09780E2                5.09780E2                9.51318E-1                                     2.67585E-7                                        4.86816E-2
1.87900E3                5.09810E2                5.09810E2                9.51433E-1                                     2.72787E-7                                        4.85667E-2
1.87900E3                5.09840E2                5.09840E2                9.51555E-1                                     2.77813E-7                                        4.84451E-2
1.87900E3                5.09870E2                5.09870E2                9.51683E-1                                     2.82635E-7                                        4.83162E-2
1.87900E3                5.09900E2                5.09900E2                9.51820E-1                                     2.87223E-7                                        4.81796E-2
1.87900E3                5.09930E2                5.09930E2                9.51965E-1                                     2.91545E-7                                        4.80347E-2
1.87900E3                5.09960E2                5.09960E2                9.52119E-1                                     2.95569E-7                                        4.78810E-2
1.87900E3                5.09990E2                5.09990E2                9.52282E-1                                     2.99261E-7                                        4.77179E-2
1.87900E3                5.10020E2                5.10020E2                9.52455E-1                                     3.02587E-7                                        4.75449E-2
1.87900E3                5.10050E2                5.10050E2                9.52638E-1                                     3.05513E-7                                        4.73615E-2
1.87900E3                5.10080E2                5.10080E2                9.52833E-1                                     3.08002E-7                                        4.71671E-2
1.87900E3                5.10110E2                5.10110E2                9.53039E-1                                     3.10021E-7                                        4.69611E-2
1.87900E3                5.10140E2                5.10140E2                9.53257E-1                                     3.11535E-7                                        4.67432E-2
1.87900E3                5.10170E2                5.10170E2                9.53487E-1                                     3.12511E-7                                        4.65127E-2
1.87900E3                5.10200E2                5.10200E2                9.53730E-1                                     3.12917E-7                                        4.62693E-2
1.87900E3                5.10230E2                5.10230E2                9.53987E-1                                     3.12723E-7                                        4.60126E-2
1.87900E3                5.10260E2                5.10260E2                9.54257E-1                                     3.11901E-7                                        4.57423E-2
1.87900E3                5.10290E2                5.10290E2                9.54542E-1                                     3.10427E-7                                        4.54581E-2
1.87900E3                5.10320E2                5.10320E2                9.54840E-1                                     3.08282E-7                                        4.51600E-2
1.87900E3                5.10350E2                5.10350E2                9.55152E-1                                     3.05447E-7                                        4.48479E-2
1.87900E3                5.10380E2                5.10380E2                9.55478E-1                                     3.01913E-7                                        4.45217E-2
1.87900E3                5.10410E2                5.10410E2                9.55818E-1                                     2.97675E-7                                        4.41818E-2
1.87900E3                5.10440E2                5.10440E2                9.56171E-1                                     2.92731E-7                                        4.38285E-2
1.87900E3                5.10470E2                5.10470E2                9.56538E-1                                     2.87091E-7                                        4.34621E-2
1.87900E3                5.10500E2                5.10500E2                9.56916E-1                                     2.80768E-7                                        4.30833E-2
1.87900E3                5.10530E2                5.10530E2                9.57307E-1                                     2.73783E-7                                        4.26928E-2
1.87900E3                5.10560E2                5.10560E2                9.57708E-1                                     2.66165E-7                                        4.22915E-2
1.87900E3                5.10590E2                5.10590E2                9.58119E-1                                     2.58557E-7                                        4.18810E-2
1.87900E3                5.10620E2                5.10620E2                9.58538E-1                                     2.50346E-7                                        4.14618E-2
1.87900E3                5.10650E2                5.10650E2                9.58965E-1                                     2.41557E-7                                        4.10351E-2
1.87900E3                5.10680E2                5.10680E2                9.59397E-1                                     2.32243E-7                                        4.06023E-2
1.87900E3                5.10710E2                5.10710E2                9.59835E-1                                     2.22467E-7                                        4.01649E-2
1.87900E3                5.10740E2                5.10740E2                9.60276E-1                                     2.12293E-7                                        3.97243E-2
1.87900E3                5.10770E2                5.10770E2                9.60718E-1                                     2.01790E-7                                        3.92820E-2
1.87900E3                5.10800E2                5.10800E2                9.61160E-1                                     1.91033E-7                                        3.88397E-2
1.87900E3                5.10830E2                5.10830E2                9.61601E-1                                     1.80094E-7                                        3.83989E-2
1.87900E3                5.10860E2                5.10860E2                9.62039E-1                                     1.69051E-7                                        3.79611E-2
1.87900E3                5.10890E2                5.10890E2                9.62472E-1                                     1.57976E-7                                        3.75277E-2
1.87900E3                5.10920E2                5.10920E2                9.62900E-1                                     1.46945E-7                                        3.71001E-2
1.87900E3                5.10950E2                5.10950E2                9.63320E-1                                     1.36026E-7                                        3.66796E-2
1.87900E3                5.10980E2                5.10980E2                9.63732E-1                                     1.25287E-7                                        3.62675E-2
1.87900E3                5.11010E2                5.11010E2                9.64135E-1                                     1.14789E-7                                        3.58647E-2
1.87900E3                5.11040E2                5.11040E2                9.64528E-1                                     1.04590E-7                                        3.54722E-2
1.87900E3                5.11070E2                5.11070E2                9.64909E-1                                     9.47410E-8                                        3.50908E-2
1.87900E3                5.11100E2                5.11100E2                9.65279E-1                                     8.52864E-8                                        3.47212E-2
1.87900E3                5.11130E2                5.11130E2                9.65636E-1                                     7.62654E-8                                        3.43639E-2
1.87900E3                5.11160E2                5.11160E2                9.65981E-1                                     6.77104E-8                                        3.40193E-2
1.87900E3                5.11190E2                5.11190E2                9.66312E-1                                     5.96477E-8                                        3.36877E-2
1.87900E3                5.11220E2                5.11220E2                9.66631E-1                                     5.20973E-8                                        3.33694E-2
1.87900E3                5.11250E2                5.11250E2                9.66936E-1                                     4.50737E-8                                        3.30642E-2
1.87900E3                5.11280E2                5.11280E2                9.67228E-1                                     3.85858E-8                                        3.27723E-2
1.87900E3                5.11310E2                5.11310E2                9.67507E-1                                     3.26376E-8                                        3.24935E-2
1.87900E3                5.11340E2                5.11340E2                9.67772E-1                                     2.72286E-8                                        3.22275E-2
1.87900E3                5.11370E2                5.11370E2                9.68026E-1                                     2.23543E-8                                        3.19742E-2
1.87900E3                5.11400E2                5.11400E2                9.68267E-1                                     1.80064E-8                                        3.17332E-2
1.87900E3                5.11430E2                5.11430E2                9.68496E-1                                     1.41739E-8                                        3.15041E-2
1.87900E3                5.11460E2                5.11460E2                9.68713E-1                                     1.08428E-8                                        3.12866E-2
1.87900E3                5.11490E2                5.11490E2                9.68920E-1                                     7.99725E-9                                        3.10802E-2
1.87900E3                5.11520E2                5.11520E2                9.69116E-1                                     5.61955E-9                                        3.08844E-2
1.87900E3                5.11550E2                5.11550E2                9.69301E-1                                     3.69062E-9                                        3.06989E-2
1.87900E3                5.11580E2                5.11580E2                9.69477E-1                                     2.19038E-9                                        3.05232E-2
1.87900E3                5.11610E2                5.11610E2                9.69643E-1                                     1.09806E-9                                        3.03568E-2
1.87900E3                5.11640E2                5.11640E2                9.69801E-1                                     3.92467E-10                                       3.01992E-2
1.87900E3                5.11670E2                5.11670E2                9.69950E-1                                     5.22067E-11                                       3.00500E-2
1.87900E3                5.11700E2                5.11700E2                9.70091E-1                                     5.59176E-11                                       2.99087E-2
1.87900E3                5.11730E2                5.11730E2                9.70225E-1                                     3.82435E-10                                       2.97750E-2
1.87900E3                5.11760E2                5.11760E2                9.70352E-1                                     1.01094E-9                                        2.96484E-2
1.87900E3                5.11790E2                5.11790E2                9.70471E-1                                     1.92107E-9                                        2.95286E-2
1.87900E3                5.11820E2                5.11820E2                9.70585E-1                                     3.09305E-9                                        2.94151E-2
1.87900E3                5.11850E2                5.11850E2                9.70692E-1                                     4.50772E-9                                        2.93076E-2
1.87900E3                5.11880E2                5.11880E2                9.70794E-1                                     6.14662E-9                                        2.92057E-2
1.87900E3                5.11910E2                5.11910E2                9.70891E-1                                     7.99203E-9                                        2.91092E-2
1.87900E3                5.11940E2                5.11940E2                9.70982E-1                                     1.00270E-8                                        2.90178E-2
1.87900E3                5.11970E2                5.11970E2                9.71069E-1                                     1.22354E-8                                        2.89311E-2
1.87900E3                5.12000E2                5.12000E2                9.71151E-1                                     1.46018E-8                                        2.88490E-2
1.87900E3                5.12030E2                5.12030E2                9.71229E-1                                     1.71116E-8                                        2.87711E-2
1.87900E3                5.12060E2                5.12060E2                9.71303E-1                                     1.97510E-8                                        2.86973E-2
1.87900E3                5.12090E2                5.12090E2                9.71373E-1                                     2.25069E-8                                        2.86274E-2
1.87900E3                5.12120E2                5.12120E2                9.71439E-1                                     2.53670E-8                                        2.85611E-2
1.87900E3                5.12150E2                5.12150E2                9.71502E-1                                     2.83196E-8                                        2.84983E-2
1.87900E3                5.12180E2                5.12180E2                9.71559E-1                                     3.15300E-8                                        2.84411E-2
1.87900E3                5.12210E2                5.12210E2                9.71612E-1                                     3.48688E-8                                        2.83875E-2
1.87900E3                5.12240E2                5.12240E2                9.71663E-1                                     3.83022E-8                                        2.83369E-2
1.87900E3                5.12270E2                5.12270E2                9.71711E-1                                     4.18214E-8                                        2.82893E-2
1.87900E3                5.12300E2                5.12300E2                9.71755E-1                                     4.54184E-8                                        2.82445E-2
1.87900E3                5.12330E2                5.12330E2                9.71797E-1                                     4.90855E-8                                        2.82025E-2
1.87900E3                5.12360E2                5.12360E2                9.71837E-1                                     5.28155E-8                                        2.81631E-2
1.87900E3                5.12390E2                5.12390E2                9.71874E-1                                     5.66014E-8                                        2.81263E-2
1.87900E3                5.12420E2                5.12420E2                9.71908E-1                                     6.04368E-8                                        2.80921E-2
1.87900E3                5.12450E2                5.12450E2                9.71940E-1                                     6.43156E-8                                        2.80603E-2
1.87900E3                5.12480E2                5.12480E2                9.71969E-1                                     6.82317E-8                                        2.80310E-2
1.87900E3                5.12510E2                5.12510E2                9.71996E-1                                     7.21799E-8                                        2.80041E-2
1.87900E3                5.12540E2                5.12540E2                9.72020E-1                                     7.61548E-8                                        2.79796E-2
1.87900E3                5.12570E2                5.12570E2                9.72042E-1                                     8.01514E-8                                        2.79575E-2
1.87900E3                5.12600E2                5.12600E2                9.72062E-1                                     8.41652E-8                                        2.79377E-2
1.87900E3                5.12630E2                5.12630E2                9.72080E-1                                     8.81914E-8                                        2.79202E-2
1.87900E3                5.12660E2                5.12660E2                9.72095E-1                                     9.22261E-8                                        2.79052E-2
1.87900E3                5.12690E2                5.12690E2                9.72107E-1                                     9.62650E-8                                        2.78924E-2
1.87900E3                5.12720E2                5.12720E2                9.72118E-1                                     1.00304E-7                                        2.78821E-2
1.87900E3                5.12750E2                5.12750E2                9.72126E-1                                     1.04340E-7                                        2.78741E-2
1.87900E3                5.12780E2                5.12780E2                9.72131E-1                                     1.08370E-7                                        2.78686E-2
1.87900E3                5.12810E2                5.12810E2                9.72134E-1                                     1.12389E-7                                        2.78655E-2
1.87900E3                5.12840E2                5.12840E2                9.72135E-1                                     1.16395E-7                                        2.78649E-2
1.87900E3                5.12870E2                5.12870E2                9.72133E-1                                     1.20384E-7                                        2.78668E-2
1.87900E3                5.12900E2                5.12900E2                9.72129E-1                                     1.24354E-7                                        2.78714E-2
1.87900E3                5.12930E2                5.12930E2                9.72121E-1                                     1.28302E-7                                        2.78785E-2
1.87900E3                5.12960E2                5.12960E2                9.72112E-1                                     1.32226E-7                                        2.78883E-2
1.87900E3                5.12990E2                5.12990E2                9.72099E-1                                     1.36121E-7                                        2.79009E-2