% Model:              cluster_pvk_0_TM_desp_0_sim_SOLVED.mph
% Version:            COMSOL 6.2.0.658
% Date:               Nov 24 2025, 17:56
% Table:              Accumulated Probe Table 13 - 
% h_fib (nm)             lda0 (nm)                lambda0 (nm)             Reflection port 1 (1), Global Variable Probe 1 Transmittance port 2 (1), Global Variable Probe 2 Absorptance total (1), Global Variable Probe 3
1.87900E3                5.08220E2                5.08220E2                9.51183E-1                                     4.31736E-7                                        4.88168E-2
1.87900E3                5.08250E2                5.08250E2                9.51188E-1                                     4.55557E-7                                        4.88112E-2
1.87900E3                5.08280E2                5.08280E2                9.51193E-1                                     4.81132E-7                                        4.88070E-2
1.87900E3                5.08310E2                5.08310E2                9.51195E-1                                     5.08726E-7                                        4.88045E-2
1.87900E3                5.08340E2                5.08340E2                9.51196E-1                                     5.38649E-7                                        4.88039E-2
1.87900E3                5.08370E2                5.08370E2                9.51194E-1                                     5.71256E-7                                        4.88055E-2
1.87900E3                5.08400E2                5.08400E2                9.51190E-1                                     6.06955E-7                                        4.88094E-2
1.87900E3                5.08430E2                5.08430E2                9.51184E-1                                     6.46214E-7                                        4.88158E-2
1.87900E3                5.08460E2                5.08460E2                9.51174E-1                                     6.89558E-7                                        4.88248E-2
1.87900E3                5.08490E2                5.08490E2                9.51163E-1                                     7.37576E-7                                        4.88367E-2
1.87900E3                5.08520E2                5.08520E2                9.51148E-1                                     7.90918E-7                                        4.88516E-2
1.87900E3                5.08550E2                5.08550E2                9.51130E-1                                     8.50294E-7                                        4.88694E-2
1.87900E3                5.08580E2                5.08580E2                9.51109E-1                                     9.16460E-7                                        4.88901E-2
1.87900E3                5.08610E2                5.08610E2                9.51085E-1                                     9.90210E-7                                        4.89136E-2
1.87900E3                5.08640E2                5.08640E2                9.51059E-1                                     1.07235E-6                                        4.89398E-2
1.87900E3                5.08670E2                5.08670E2                9.51031E-1                                     1.16367E-6                                        4.89682E-2
1.87900E3                5.08700E2                5.08700E2                9.51000E-1                                     1.26493E-6                                        4.89983E-2
1.87900E3                5.08730E2                5.08730E2                9.50969E-1                                     1.37675E-6                                        4.90296E-2
1.87900E3                5.08760E2                5.08760E2                9.50937E-1                                     1.49965E-6                                        4.90612E-2
1.87900E3                5.08790E2                5.08790E2                9.50906E-1                                     1.63394E-6                                        4.90922E-2
1.87900E3                5.08820E2                5.08820E2                9.50877E-1                                     1.77968E-6                                        4.91216E-2
1.87900E3                5.08850E2                5.08850E2                9.50850E-1                                     1.93663E-6                                        4.91482E-2
1.87900E3                5.08880E2                5.08880E2                9.50827E-1                                     2.10427E-6                                        4.91708E-2
1.87900E3                5.08910E2                5.08910E2                9.50810E-1                                     2.28172E-6                                        4.91882E-2
1.87900E3                5.08940E2                5.08940E2                9.50798E-1                                     2.46782E-6                                        4.91992E-2
1.87900E3                5.08970E2                5.08970E2                9.50794E-1                                     2.66113E-6                                        4.92030E-2
1.87900E3                5.09000E2                5.09000E2                9.50799E-1                                     2.86002E-6                                        4.91986E-2
1.87900E3                5.09030E2                5.09030E2                9.50811E-1                                     3.06274E-6                                        4.91855E-2
1.87900E3                5.09060E2                5.09060E2                9.50833E-1                                     3.26753E-6                                        4.91633E-2
1.87900E3                5.09090E2                5.09090E2                9.50864E-1                                     3.47268E-6                                        4.91320E-2
1.87900E3                5.09120E2                5.09120E2                9.50905E-1                                     3.67664E-6                                        4.90917E-2
1.87900E3                5.09150E2                5.09150E2                9.50953E-1                                     3.87808E-6                                        4.90427E-2
1.87900E3                5.09180E2                5.09180E2                9.51010E-1                                     4.07589E-6                                        4.89856E-2
1.87900E3                5.09210E2                5.09210E2                9.51075E-1                                     4.26925E-6                                        4.89209E-2
1.87900E3                5.09240E2                5.09240E2                9.51146E-1                                     4.45759E-6                                        4.88493E-2
1.87900E3                5.09270E2                5.09270E2                9.51224E-1                                     4.64058E-6                                        4.87715E-2
1.87900E3                5.09300E2                5.09300E2                9.51307E-1                                     4.81810E-6                                        4.86882E-2
1.87900E3                5.09330E2                5.09330E2                9.51395E-1                                     4.99020E-6                                        4.86000E-2
1.87900E3                5.09360E2                5.09360E2                9.51488E-1                                     5.15704E-6                                        4.85073E-2
1.87900E3                5.09390E2                5.09390E2                9.51584E-1                                     5.31888E-6                                        4.84106E-2
1.87900E3                5.09420E2                5.09420E2                9.51684E-1                                     5.47601E-6                                        4.83103E-2
1.87900E3                5.09450E2                5.09450E2                9.51788E-1                                     5.62874E-6                                        4.82065E-2
1.87900E3                5.09480E2                5.09480E2                9.51895E-1                                     5.77740E-6                                        4.80994E-2
1.87900E3                5.09510E2                5.09510E2                9.52005E-1                                     5.92228E-6                                        4.79890E-2
1.87900E3                5.09540E2                5.09540E2                9.52119E-1                                     6.06373E-6                                        4.78753E-2
1.87900E3                5.09570E2                5.09570E2                9.52236E-1                                     6.20217E-6                                        4.77582E-2
1.87900E3                5.09600E2                5.09600E2                9.52356E-1                                     6.33826E-6                                        4.76374E-2
1.87900E3                5.09630E2                5.09630E2                9.52481E-1                                     6.47318E-6                                        4.75128E-2
1.87900E3                5.09660E2                5.09660E2                9.52609E-1                                     6.60921E-6                                        4.73842E-2
1.87900E3                5.09690E2                5.09690E2                9.52742E-1                                     6.75080E-6                                        4.72512E-2
1.87900E3                5.09720E2                5.09720E2                9.52879E-1                                     6.90688E-6                                        4.71138E-2
1.87900E3                5.09750E2                5.09750E2                9.53021E-1                                     7.09543E-6                                        4.69718E-2
1.87900E3                5.09780E2                5.09780E2                9.53167E-1                                     7.35364E-6                                        4.68258E-2
1.87900E3                5.09810E2                5.09810E2                9.53316E-1                                     7.76128E-6                                        4.66765E-2
1.87900E3                5.09840E2                5.09840E2                9.53465E-1                                     8.49927E-6                                        4.65263E-2
1.87900E3                5.09870E2                5.09870E2                9.53609E-1                                     1.00128E-5                                        4.63810E-2
1.87900E3                5.09900E2                5.09900E2                9.53732E-1                                     1.35386E-5                                        4.62549E-2
1.87900E3                5.09930E2                5.09930E2                9.53785E-1                                     2.32222E-5                                        4.61915E-2
1.87900E3                5.09960E2                5.09960E2                9.53574E-1                                     5.82612E-5                                        4.63678E-2
1.87900E3                5.09990E2                5.09990E2                9.51469E-1                                     2.98136E-4                                        4.82324E-2
1.87900E3                5.10020E2                5.10020E2                6.42958E-1                                     4.09840E-2                                        3.16058E-1
1.87900E3                5.10050E2                5.10050E2                9.52276E-1                                     5.14020E-4                                        4.72101E-2
1.87900E3                5.10080E2                5.10080E2                9.54610E-1                                     1.86482E-4                                        4.52030E-2
1.87900E3                5.10110E2                5.10110E2                9.55290E-1                                     1.16872E-4                                        4.45934E-2
1.87900E3                5.10140E2                5.10140E2                9.55730E-1                                     9.12157E-5                                        4.41783E-2
1.87900E3                5.10170E2                5.10170E2                9.56114E-1                                     7.99487E-5                                        4.38061E-2
1.87900E3                5.10200E2                5.10200E2                9.56486E-1                                     7.52562E-5                                        4.34390E-2
1.87900E3                5.10230E2                5.10230E2                9.56862E-1                                     7.43948E-5                                        4.30639E-2
1.87900E3                5.10260E2                5.10260E2                9.57248E-1                                     7.63055E-5                                        4.26755E-2
1.87900E3                5.10290E2                5.10290E2                9.57648E-1                                     8.06653E-5                                        4.22717E-2
1.87900E3                5.10320E2                5.10320E2                9.58060E-1                                     8.75894E-5                                        4.18522E-2
1.87900E3                5.10350E2                5.10350E2                9.58484E-1                                     9.75721E-5                                        4.14180E-2
1.87900E3                5.10380E2                5.10380E2                9.58916E-1                                     1.11573E-4                                        4.09719E-2
1.87900E3                5.10410E2                5.10410E2                9.59349E-1                                     1.31270E-4                                        4.05193E-2
1.87900E3                5.10440E2                5.10440E2                9.59771E-1                                     1.59611E-4                                        4.00691E-2
1.87900E3                5.10470E2                5.10470E2                9.60160E-1                                     2.02036E-4                                        3.96378E-2
1.87900E3                5.10500E2                5.10500E2                9.60475E-1                                     2.69440E-4                                        3.92560E-2
1.87900E3                5.10530E2                5.10530E2                9.60625E-1                                     3.86328E-4                                        3.89885E-2
1.87900E3                5.10560E2                5.10560E2                9.60386E-1                                     6.18000E-4                                        3.89961E-2
1.87900E3                5.10590E2                5.10590E2                9.59004E-1                                     1.19195E-3                                        3.98037E-2
1.87900E3                5.10620E2                5.10620E2                9.52327E-1                                     3.41691E-3                                        4.42562E-2
1.87900E3                5.10650E2                5.10650E2                8.38248E-1                                     4.09419E-2                                        1.20810E-1
1.87900E3                5.10680E2                5.10680E2                9.30651E-1                                     1.25574E-2                                        5.67920E-2
1.87900E3                5.10710E2                5.10710E2                9.60407E-1                                     2.03494E-3                                        3.75585E-2
1.87900E3                5.10740E2                5.10740E2                9.63677E-1                                     7.99074E-4                                        3.55241E-2
1.87900E3                5.10770E2                5.10770E2                9.64242E-1                                     4.42022E-4                                        3.53155E-2
1.87900E3                5.10800E2                5.10800E2                9.63698E-1                                     3.03088E-4                                        3.59986E-2
1.87900E3                5.10830E2                5.10830E2                9.62072E-1                                     2.46642E-4                                        3.76811E-2
1.87900E3                5.10860E2                5.10860E2                9.58947E-1                                     2.32578E-4                                        4.08203E-2
1.87900E3                5.10890E2                5.10890E2                9.53569E-1                                     2.47465E-4                                        4.61831E-2
1.87900E3                5.10920E2                5.10920E2                9.44911E-1                                     2.86669E-4                                        5.48020E-2
1.87900E3                5.10950E2                5.10950E2                9.32131E-1                                     3.45395E-4                                        6.75232E-2
1.87900E3                5.10980E2                5.10980E2                9.16038E-1                                     4.09120E-4                                        8.35529E-2
1.87900E3                5.11010E2                5.11010E2                9.00989E-1                                     4.48608E-4                                        9.85619E-2
1.87900E3                5.11040E2                5.11040E2                8.93238E-1                                     4.38066E-4                                        1.06324E-1
1.87900E3                5.11070E2                5.11070E2                8.94841E-1                                     3.83468E-4                                        1.04776E-1
1.87900E3                5.11100E2                5.11100E2                9.02378E-1                                     3.12928E-4                                        9.73090E-2
1.87900E3                5.11130E2                5.11130E2                9.11660E-1                                     2.47750E-4                                        8.80925E-2
1.87900E3                5.11160E2                5.11160E2                9.20392E-1                                     1.95211E-4                                        7.94126E-2
1.87900E3                5.11190E2                5.11190E2                9.27842E-1                                     1.55000E-4                                        7.20030E-2
1.87900E3                5.11220E2                5.11220E2                9.33982E-1                                     1.24618E-4                                        6.58930E-2
1.87900E3                5.11250E2                5.11250E2                9.39007E-1                                     1.01553E-4                                        6.08913E-2
1.87900E3                5.11280E2                5.11280E2                9.43138E-1                                     8.38299E-5                                        5.67778E-2
1.87900E3                5.11310E2                5.11310E2                9.46568E-1                                     7.00108E-5                                        5.33620E-2
1.87900E3                5.11340E2                5.11340E2                9.49447E-1                                     5.90739E-5                                        5.04936E-2
1.87900E3                5.11370E2                5.11370E2                9.51892E-1                                     5.02943E-5                                        4.80576E-2
1.87900E3                5.11400E2                5.11400E2                9.53990E-1                                     4.31539E-5                                        4.59666E-2
1.87900E3                5.11430E2                5.11430E2                9.55808E-1                                     3.72776E-5                                        4.41544E-2
1.87900E3                5.11460E2                5.11460E2                9.57397E-1                                     3.23902E-5                                        4.25703E-2
1.87900E3                5.11490E2                5.11490E2                9.58797E-1                                     2.82867E-5                                        4.11749E-2
1.87900E3                5.11520E2                5.11520E2                9.60038E-1                                     2.48122E-5                                        3.99375E-2
1.87900E3                5.11550E2                5.11550E2                9.61144E-1                                     2.18484E-5                                        3.88338E-2
1.87900E3                5.11580E2                5.11580E2                9.62136E-1                                     1.93033E-5                                        3.78443E-2
1.87900E3                5.11610E2                5.11610E2                9.63030E-1                                     1.71048E-5                                        3.69533E-2
1.87900E3                5.11640E2                5.11640E2                9.63837E-1                                     1.51957E-5                                        3.61479E-2
1.87900E3                5.11670E2                5.11670E2                9.64569E-1                                     1.35302E-5                                        3.54172E-2
1.87900E3                5.11700E2                5.11700E2                9.65235E-1                                     1.20711E-5                                        3.47525E-2
1.87900E3                5.11730E2                5.11730E2                9.65843E-1                                     1.07881E-5                                        3.41461E-2
1.87900E3                5.11760E2                5.11760E2                9.66399E-1                                     9.65634E-6                                        3.35917E-2
1.87900E3                5.11790E2                5.11790E2                9.66908E-1                                     8.65497E-6                                        3.30838E-2
1.87900E3                5.11820E2                5.11820E2                9.67375E-1                                     7.76672E-6                                        3.26176E-2
1.87900E3                5.11850E2                5.11850E2                9.67804E-1                                     6.97700E-6                                        3.21890E-2
1.87900E3                5.11880E2                5.11880E2                9.68199E-1                                     6.27350E-6                                        3.17944E-2
1.87900E3                5.11910E2                5.11910E2                9.68564E-1                                     5.64569E-6                                        3.14306E-2
1.87900E3                5.11940E2                5.11940E2                9.68900E-1                                     5.08461E-6                                        3.10949E-2
1.87900E3                5.11970E2                5.11970E2                9.69211E-1                                     4.58251E-6                                        3.07847E-2
1.87900E3                5.12000E2                5.12000E2                9.69498E-1                                     4.13272E-6                                        3.04979E-2
1.87900E3                5.12030E2                5.12030E2                9.69764E-1                                     3.72945E-6                                        3.02325E-2
1.87900E3                5.12060E2                5.12060E2                9.70010E-1                                     3.36765E-6                                        2.99866E-2
1.87900E3                5.12090E2                5.12090E2                9.70238E-1                                     3.04293E-6                                        2.97588E-2
1.87900E3                5.12120E2                5.12120E2                9.70450E-1                                     2.75142E-6                                        2.95476E-2
1.87900E3                5.12150E2                5.12150E2                9.70646E-1                                     2.48972E-6                                        2.93518E-2
1.87900E3                5.12180E2                5.12180E2                9.70828E-1                                     2.25484E-6                                        2.91700E-2
1.87900E3                5.12210E2                5.12210E2                9.70997E-1                                     2.04415E-6                                        2.90014E-2
1.87900E3                5.12240E2                5.12240E2                9.71153E-1                                     1.85530E-6                                        2.88449E-2
1.87900E3                5.12270E2                5.12270E2                9.71299E-1                                     1.68623E-6                                        2.86998E-2
1.87900E3                5.12300E2                5.12300E2                9.71433E-1                                     1.53512E-6                                        2.85651E-2
1.87900E3                5.12330E2                5.12330E2                9.71558E-1                                     1.40035E-6                                        2.84403E-2
1.87900E3                5.12360E2                5.12360E2                9.71674E-1                                     1.28048E-6                                        2.83246E-2
1.87900E3                5.12390E2                5.12390E2                9.71781E-1                                     1.17427E-6                                        2.82176E-2
1.87900E3                5.12420E2                5.12420E2                9.71880E-1                                     1.08064E-6                                        2.81187E-2
1.87900E3                5.12450E2                5.12450E2                9.71972E-1                                     9.98658E-7                                        2.80274E-2
1.87900E3                5.12480E2                5.12480E2                9.72056E-1                                     9.27548E-7                                        2.79434E-2
1.87900E3                5.12510E2                5.12510E2                9.72133E-1                                     8.66705E-7                                        2.78663E-2
1.87900E3                5.12540E2                5.12540E2                9.72203E-1                                     8.15706E-7                                        2.77958E-2
1.87900E3                5.12570E2                5.12570E2                9.72267E-1                                     7.74343E-7                                        2.77318E-2
1.87900E3                5.12600E2                5.12600E2                9.72325E-1                                     7.42692E-7                                        2.76740E-2
1.87900E3                5.12630E2                5.12630E2                9.72377E-1                                     7.21214E-7                                        2.76224E-2
1.87900E3                5.12660E2                5.12660E2                9.72422E-1                                     7.10958E-7                                        2.75772E-2
1.87900E3                5.12690E2                5.12690E2                9.72461E-1                                     7.13913E-7                                        2.75385E-2
1.87900E3                5.12720E2                5.12720E2                9.72492E-1                                     7.33716E-7                                        2.75069E-2
1.87900E3                5.12750E2                5.12750E2                9.72516E-1                                     7.77150E-7                                        2.74835E-2
1.87900E3                5.12780E2                5.12780E2                9.72529E-1                                     8.57656E-7                                        2.74705E-2
1.87900E3                5.12810E2                5.12810E2                9.72527E-1                                     1.00484E-6                                        2.74723E-2
1.87900E3                5.12840E2                5.12840E2                9.72499E-1                                     1.29587E-6                                        2.74995E-2
1.87900E3                5.12870E2                5.12870E2                9.72414E-1                                     1.99804E-6                                        2.75840E-2
1.87900E3                5.12900E2                5.12900E2                9.72113E-1                                     4.75736E-6                                        2.78826E-2
1.87900E3                5.12930E2                5.12930E2                9.65656E-1                                     1.28213E-4                                        3.42157E-2
1.87900E3                5.12960E2                5.12960E2                9.73348E-1                                     3.26808E-6                                        2.66490E-2
1.87900E3                5.12990E2                5.12990E2                9.73095E-1                                     3.23171E-7                                        2.69051E-2